 Entering Gaussian System, Link 0=/opt/gaussian/g09/g09
 Initial command:
 /opt/gaussian/g09/l1.exe "/scratch/ccollins/925064.gordon-fe2.local/Gau-96927.inp" -scrdir="/scratch/ccollins/925064.gordon-fe2.local/"
 Entering Link 1 = /opt/gaussian/g09/l1.exe PID=     96928.
  
 Copyright (c) 1988,1990,1992,1993,1995,1998,2003,2009,2013,
            Gaussian, Inc.  All Rights Reserved.
  
 This is part of the Gaussian(R) 09 program.  It is based on
 the Gaussian(R) 03 system (copyright 2003, Gaussian, Inc.),
 the Gaussian(R) 98 system (copyright 1998, Gaussian, Inc.),
 the Gaussian(R) 94 system (copyright 1995, Gaussian, Inc.),
 the Gaussian 92(TM) system (copyright 1992, Gaussian, Inc.),
 the Gaussian 90(TM) system (copyright 1990, Gaussian, Inc.),
 the Gaussian 88(TM) system (copyright 1988, Gaussian, Inc.),
 the Gaussian 86(TM) system (copyright 1986, Carnegie Mellon
 University), and the Gaussian 82(TM) system (copyright 1983,
 Carnegie Mellon University). Gaussian is a federally registered
 trademark of Gaussian, Inc.
  
 This software contains proprietary and confidential information,
 including trade secrets, belonging to Gaussian, Inc.
  
 This software is provided under written license and may be
 used, copied, transmitted, or stored only in accord with that
 written license.
  
 The following legend is applicable only to US Government
 contracts under FAR:
  
                    RESTRICTED RIGHTS LEGEND
  
 Use, reproduction and disclosure by the US Government is
 subject to restrictions as set forth in subparagraphs (a)
 and (c) of the Commercial Computer Software - Restricted
 Rights clause in FAR 52.227-19.
  
 Gaussian, Inc.
 340 Quinnipiac St., Bldg. 40, Wallingford CT 06492
  
  
 ---------------------------------------------------------------
 Warning -- This program may not be used in any manner that
 competes with the business of Gaussian, Inc. or will provide
 assistance to any competitor of Gaussian, Inc.  The licensee
 of this program is prohibited from giving any competitor of
 Gaussian, Inc. access to this program.  By using this program,
 the user acknowledges that Gaussian, Inc. is engaged in the
 business of creating and licensing software in the field of
 computational chemistry and represents and warrants to the
 licensee that it is not a competitor of Gaussian, Inc. and that
 it will not use this program in any manner prohibited above.
 ---------------------------------------------------------------
  

 Cite this work as:
 Gaussian 09, Revision D.01,
 M. J. Frisch, G. W. Trucks, H. B. Schlegel, G. E. Scuseria, 
 M. A. Robb, J. R. Cheeseman, G. Scalmani, V. Barone, B. Mennucci, 
 G. A. Petersson, H. Nakatsuji, M. Caricato, X. Li, H. P. Hratchian, 
 A. F. Izmaylov, J. Bloino, G. Zheng, J. L. Sonnenberg, M. Hada, 
 M. Ehara, K. Toyota, R. Fukuda, J. Hasegawa, M. Ishida, T. Nakajima, 
 Y. Honda, O. Kitao, H. Nakai, T. Vreven, J. A. Montgomery, Jr., 
 J. E. Peralta, F. Ogliaro, M. Bearpark, J. J. Heyd, E. Brothers, 
 K. N. Kudin, V. N. Staroverov, T. Keith, R. Kobayashi, J. Normand, 
 K. Raghavachari, A. Rendell, J. C. Burant, S. S. Iyengar, J. Tomasi, 
 M. Cossi, N. Rega, J. M. Millam, M. Klene, J. E. Knox, J. B. Cross, 
 V. Bakken, C. Adamo, J. Jaramillo, R. Gomperts, R. E. Stratmann, 
 O. Yazyev, A. J. Austin, R. Cammi, C. Pomelli, J. W. Ochterski, 
 R. L. Martin, K. Morokuma, V. G. Zakrzewski, G. A. Voth, 
 P. Salvador, J. J. Dannenberg, S. Dapprich, A. D. Daniels, 
 O. Farkas, J. B. Foresman, J. V. Ortiz, J. Cioslowski, 
 and D. J. Fox, Gaussian, Inc., Wallingford CT, 2013.
 
 ******************************************
 Gaussian 09:  ES64L-G09RevD.01 24-Apr-2013
                11-Sep-2013 
 ******************************************
 %nprocshared=8
 Will use up to    8 processors via shared memory.
 %mem=59GB
 %chk=1_04_0.chk
 --------------------------------------
 # opt b3lyp/6-31g(d) geom=connectivity
 --------------------------------------
 1/14=-1,18=20,19=15,26=3,38=1,57=2/1,3;
 2/9=110,12=2,17=6,18=5,40=1/2;
 3/5=1,6=6,7=1,11=2,16=1,25=1,30=1,71=1,74=-5/1,2,3;
 4//1;
 5/5=2,38=5/2;
 6/7=2,8=2,9=2,10=2,28=1/1;
 7//1,2,3,16;
 1/14=-1,18=20,19=15,26=3/3(2);
 2/9=110/2;
 99//99;
 2/9=110/2;
 3/5=1,6=6,7=1,11=2,16=1,25=1,30=1,71=1,74=-5/1,2,3;
 4/5=5,16=3,69=1/1;
 5/5=2,38=5/2;
 7//1,2,3,16;
 1/14=-1,18=20,19=15,26=3/3(-5);
 2/9=110/2;
 6/7=2,8=2,9=2,10=2,19=2,28=1/1;
 99/9=1/99;
 ------
 1_04_0
 ------
 Symbolic Z-matrix:
 Charge =  0 Multiplicity = 1
 C
 C                    1    B1
 C                    2    B2       1    A1
 C                    3    B3       2    A2       1    D1       0
 S                    4    B4       3    A3       2    D2       0
 O                    2    B5       1    A4       5    D3       0
 O                    3    B6       2    A5       1    D4       0
 C                    7    B7       3    A6       2    D5       0
 C                    6    B8       2    A7       1    D6       0
 C                    9    B9       6    A8       2    D7       0
 H                    8    B10      7    A9       3    D8       0
 H                    8    B11      7    A10      3    D9       0
 H                    9    B12      6    A11      2    D10      0
 H                    9    B13      6    A12      2    D11      0
 C                    10   B14      9    A13      6    D12      0
 C                    10   B15      9    A14      6    D13      0
 O                    16   B16      10   A15      9    D14      0
 O                    15   B17      10   A16      9    D15      0
 C                    18   B18      15   A17      10   D16      0
 C                    17   B19      16   A18      10   D17      0
 H                    16   B20      10   A19      9    D18      0
 H                    16   B21      10   A20      9    D19      0
 H                    15   B22      10   A21      9    D20      0
 H                    15   B23      10   A22      9    D21      0
 H                    19   B24      18   A23      15   D22      0
 H                    19   B25      18   A24      15   D23      0
 H                    19   B26      18   A25      15   D24      0
 H                    20   B27      17   A26      16   D25      0
 H                    20   B28      17   A27      16   D26      0
 H                    20   B29      17   A28      16   D27      0
 C                    4    B30      3    A29      2    D28      0
 C                    31   B31      4    A30      3    D29      0
 S                    31   B32      4    A31      3    D30      0
 C                    32   B33      31   A32      4    D31      0
 O                    32   B34      31   A33      4    D32      0
 C                    34   B35      32   A34      31   D33      0
 O                    34   B36      32   A35      31   D34      0
 C                    35   B37      32   A36      31   D35      0
 H                    36   B38      34   A37      32   D36      0
 C                    37   B39      34   A38      32   D37      0
 C                    38   B40      35   A39      32   D38      0
 H                    38   B41      35   A40      32   D39      0
 H                    38   B42      35   A41      32   D40      0
 H                    40   B43      37   A42      34   D41      0
 H                    40   B44      37   A43      34   D42      0
 C                    41   B45      38   A44      35   D43      0
 C                    41   B46      38   A45      35   D44      0
 O                    46   B47      41   A46      38   D45      0
 H                    46   B48      41   A47      38   D46      0
 H                    46   B49      41   A48      38   D47      0
 O                    47   B50      41   A49      38   D48      0
 H                    47   B51      41   A50      38   D49      0
 H                    47   B52      41   A51      38   D50      0
 C                    48   B53      46   A52      41   D51      0
 C                    51   B54      47   A53      41   D52      0
 H                    54   B55      48   A54      46   D53      0
 H                    54   B56      48   A55      46   D54      0
 H                    54   B57      48   A56      46   D55      0
 H                    55   B58      51   A57      47   D56      0
 H                    55   B59      51   A58      47   D57      0
 H                    55   B60      51   A59      47   D58      0
 C                    1    B61      2    A60      6    D59      0
 C                    62   B62      1    A61      2    D60      0
 S                    62   B63      1    A62      2    D61      0
 C                    63   B64      62   A63      1    D62      0
 O                    63   B65      62   A64      1    D63      0
 C                    65   B66      63   A65      62   D64      0
 O                    65   B67      63   A66      62   D65      0
 C                    66   B68      63   A67      62   D66      0
 C                    68   B69      65   A68      63   D67      0
 C                    69   B70      66   A69      63   D68      0
 H                    69   B71      66   A70      63   D69      0
 H                    69   B72      66   A71      63   D70      0
 H                    70   B73      68   A72      65   D71      0
 H                    70   B74      68   A73      65   D72      0
 C                    71   B75      69   A74      66   D73      0
 C                    71   B76      69   A75      66   D74      0
 O                    76   B77      71   A76      69   D75      0
 H                    76   B78      71   A77      69   D76      0
 H                    76   B79      71   A78      69   D77      0
 O                    77   B80      71   A79      69   D78      0
 H                    77   B81      71   A80      69   D79      0
 H                    77   B82      71   A81      69   D80      0
 C                    78   B83      76   A82      71   D81      0
 C                    81   B84      77   A83      71   D82      0
 H                    84   B85      78   A84      76   D83      0
 H                    84   B86      78   A85      76   D84      0
 H                    84   B87      78   A86      76   D85      0
 H                    85   B88      81   A87      77   D86      0
 H                    85   B89      81   A88      77   D87      0
 H                    85   B90      81   A89      77   D88      0
 C                    67   B91      65   A90      63   D89      0
 C                    92   B92      67   A91      65   D90      0
 S                    92   B93      67   A92      65   D91      0
 C                    93   B94      92   A93      67   D92      0
 O                    93   B95      92   A94      67   D93      0
 C                    95   B96      93   A95      92   D94      0
 O                    95   B97      93   A96      92   D95      0
 C                    96   B98      93   A97      92   D96      0
 H                    97   B99      95   A98      93   D97      0
 C                    98   B100     95   A99      93   D98      0
 C                    99   B101     96   A100     93   D99      0
 H                    99   B102     96   A101     93   D100     0
 H                    99   B103     96   A102     93   D101     0
 H                    101  B104     98   A103     95   D102     0
 H                    101  B105     98   A104     95   D103     0
 C                    102  B106     99   A105     96   D104     0
 C                    102  B107     99   A106     96   D105     0
 O                    107  B108     102  A107     99   D106     0
 H                    107  B109     102  A108     99   D107     0
 H                    107  B110     102  A109     99   D108     0
 O                    108  B111     102  A110     99   D109     0
 H                    108  B112     102  A111     99   D110     0
 H                    108  B113     102  A112     99   D111     0
 C                    109  B114     107  A113     102  D112     0
 C                    112  B115     108  A114     102  D113     0
 H                    115  B116     109  A115     107  D114     0
 H                    115  B117     109  A116     107  D115     0
 H                    115  B118     109  A117     107  D116     0
 H                    116  B119     112  A118     108  D117     0
 H                    116  B120     112  A119     108  D118     0
 H                    116  B121     112  A120     108  D119     0
       Variables:
  B1                    1.38248                  
  B2                    1.42281                  
  B3                    1.3819                   
  B4                    1.76334                  
  B5                    1.37006                  
  B6                    1.36868                  
  B7                    1.43933                  
  B8                    1.43776                  
  B9                    1.54189                  
  B10                   1.09155                  
  B11                   1.09496                  
  B12                   1.09456                  
  B13                   1.09464                  
  B14                   1.53741                  
  B15                   1.54063                  
  B16                   1.41784                  
  B17                   1.4176                   
  B18                   1.41214                  
  B19                   1.41204                  
  B20                   1.10491                  
  B21                   1.09949                  
  B22                   1.10479                  
  B23                   1.09763                  
  B24                   1.10095                  
  B25                   1.09321                  
  B26                   1.10216                  
  B27                   1.1016                   
  B28                   1.09294                  
  B29                   1.10193                  
  B30                   1.44183                  
  B31                   1.38223                  
  B32                   1.76412                  
  B33                   1.43326                  
  B34                   1.37011                  
  B35                   1.3659                   
  B36                   1.36866                  
  B37                   1.43786                  
  B38                   1.08073                  
  B39                   1.43564                  
  B40                   1.54197                  
  B41                   1.09461                  
  B42                   1.09471                  
  B43                   1.09209                  
  B44                   1.0957                   
  B45                   1.53728                  
  B46                   1.54057                  
  B47                   1.41791                  
  B48                   1.10476                  
  B49                   1.09763                  
  B50                   1.41799                  
  B51                   1.10491                  
  B52                   1.09954                  
  B53                   1.41191                  
  B54                   1.41194                  
  B55                   1.10107                  
  B56                   1.09325                  
  B57                   1.10219                  
  B58                   1.10168                  
  B59                   1.09297                  
  B60                   1.10193                  
  B61                   1.43947                  
  B62                   1.38248                  
  B63                   1.76463                  
  B64                   1.42281                  
  B65                   1.37006                  
  B66                   1.3819                   
  B67                   1.36868                  
  B68                   1.43776                  
  B69                   1.43933                  
  B70                   1.54189                  
  B71                   1.09456                  
  B72                   1.09464                  
  B73                   1.09155                  
  B74                   1.09496                  
  B75                   1.53741                  
  B76                   1.54063                  
  B77                   1.4176                   
  B78                   1.10479                  
  B79                   1.09763                  
  B80                   1.41784                  
  B81                   1.10491                  
  B82                   1.09949                  
  B83                   1.41214                  
  B84                   1.41204                  
  B85                   1.10095                  
  B86                   1.09321                  
  B87                   1.10216                  
  B88                   1.1016                   
  B89                   1.09294                  
  B90                   1.10193                  
  B91                   1.44183                  
  B92                   1.38223                  
  B93                   1.76412                  
  B94                   1.43326                  
  B95                   1.37011                  
  B96                   1.3659                   
  B97                   1.36866                  
  B98                   1.43786                  
  B99                   1.08073                  
  B100                  1.43564                  
  B101                  1.54197                  
  B102                  1.09461                  
  B103                  1.09471                  
  B104                  1.09209                  
  B105                  1.0957                   
  B106                  1.53728                  
  B107                  1.54057                  
  B108                  1.41791                  
  B109                  1.10476                  
  B110                  1.09763                  
  B111                  1.41799                  
  B112                  1.10491                  
  B113                  1.09954                  
  B114                  1.41191                  
  B115                  1.41194                  
  B116                  1.10107                  
  B117                  1.09325                  
  B118                  1.10219                  
  B119                  1.10168                  
  B120                  1.09297                  
  B121                  1.10193                  
  A1                  114.03288                  
  A2                  113.85023                  
  A3                  109.97892                  
  A4                  122.41682                  
  A5                  123.69465                  
  A6                  116.82738                  
  A7                  116.03453                  
  A8                  113.81712                  
  A9                  104.39082                  
  A10                 109.74509                  
  A11                 109.85237                  
  A12                 104.52498                  
  A13                 109.37543                  
  A14                 107.97957                  
  A15                 109.39165                  
  A16                 109.16206                  
  A17                 112.73973                  
  A18                 112.73031                  
  A19                 109.48575                  
  A20                 109.77065                  
  A21                 109.78364                  
  A22                 109.52278                  
  A23                 111.55649                  
  A24                 107.16185                  
  A25                 111.68008                  
  A26                 111.60958                  
  A27                 107.17349                  
  A28                 111.61756                  
  A29                 127.7043                   
  A30                 128.10481                  
  A31                 122.41099                  
  A32                 114.05454                  
  A33                 122.23198                  
  A34                 112.5235                   
  A35                 123.91828                  
  A36                 115.88392                  
  A37                 127.11565                  
  A38                 116.52041                  
  A39                 113.86206                  
  A40                 109.83899                  
  A41                 104.49953                  
  A42                 104.45816                  
  A43                 109.8795                   
  A44                 109.32497                  
  A45                 107.9252                   
  A46                 109.19545                  
  A47                 109.80931                  
  A48                 109.50678                  
  A49                 109.40961                  
  A50                 109.50397                  
  A51                 109.78955                  
  A52                 112.71401                  
  A53                 112.71741                  
  A54                 111.57491                  
  A55                 107.17912                  
  A56                 111.68717                  
  A57                 111.61821                  
  A58                 107.18249                  
  A59                 111.62144                  
  A60                 127.86243                  
  A61                 127.86243                  
  A62                 122.3266                   
  A63                 114.03288                  
  A64                 122.41682                  
  A65                 113.85023                  
  A66                 123.69465                  
  A67                 116.03453                  
  A68                 116.82738                  
  A69                 113.81712                  
  A70                 109.85237                  
  A71                 104.52498                  
  A72                 104.39082                  
  A73                 109.74509                  
  A74                 109.37543                  
  A75                 107.97957                  
  A76                 109.16206                  
  A77                 109.78364                  
  A78                 109.52278                  
  A79                 109.39165                  
  A80                 109.48575                  
  A81                 109.77065                  
  A82                 112.73973                  
  A83                 112.73031                  
  A84                 111.55649                  
  A85                 107.16185                  
  A86                 111.68008                  
  A87                 111.60958                  
  A88                 107.17349                  
  A89                 111.61756                  
  A90                 127.7043                   
  A91                 128.10481                  
  A92                 122.41099                  
  A93                 114.05454                  
  A94                 122.23198                  
  A95                 112.5235                   
  A96                 123.91828                  
  A97                 115.88392                  
  A98                 127.11565                  
  A99                 116.52041                  
  A100                113.86206                  
  A101                109.83899                  
  A102                104.49953                  
  A103                104.45816                  
  A104                109.8795                   
  A105                109.32497                  
  A106                107.9252                   
  A107                109.19545                  
  A108                109.80931                  
  A109                109.50678                  
  A110                109.40961                  
  A111                109.50397                  
  A112                109.78955                  
  A113                112.71401                  
  A114                112.71741                  
  A115                111.57491                  
  A116                107.17912                  
  A117                111.68717                  
  A118                111.61821                  
  A119                107.18249                  
  A120                111.62144                  
  D1                    0.42467                  
  D2                    0.24849                  
  D3                  175.88422                  
  D4                  176.41177                  
  D5                   59.4786                   
  D6                  124.20185                  
  D7                   78.54205                  
  D8                  164.02781                  
  D9                   47.10928                  
  D10                 -45.55981                  
  D11                -161.66349                  
  D12                  54.90241                  
  D13                 173.31583                  
  D14                  59.21025                  
  D15                 174.35966                  
  D16                 174.06866                  
  D17                 178.61514                  
  D18                 -61.63                     
  D19                -179.15136                  
  D20                  53.53292                  
  D21                 -64.39429                  
  D22                 -59.9333                   
  D23                -179.265                    
  D24                  61.50618                  
  D25                 -60.17225                  
  D26                -179.54521                  
  D27                  61.16786                  
  D28                 178.83757                  
  D29                -179.66502                  
  D30                   1.56252                  
  D31                -179.20096                  
  D32                  -2.62153                  
  D33                  -0.20969                  
  D34                 175.72745                  
  D35                 125.02471                  
  D36                 179.42256                  
  D37                  59.23091                  
  D38                  78.34178                  
  D39                 -45.80541                  
  D40                -161.8721                   
  D41                 164.56509                  
  D42                  47.70977                  
  D43                  54.67322                  
  D44                 173.01195                  
  D45                 174.1293                   
  D46                  53.30505                  
  D47                 -64.64971                  
  D48                  59.27642                  
  D49                 -61.56077                  
  D50                -179.0871                   
  D51                 174.57455                  
  D52                 178.96284                  
  D53                 -59.95628                  
  D54                -179.3057                   
  D55                  61.46288                  
  D56                 -60.20237                  
  D57                -179.58825                  
  D58                  61.12937                  
  D59                  -3.89135                  
  D60                -176.59803                  
  D61                   3.65185                  
  D62                 179.34071                  
  D63                  -3.89135                  
  D64                   0.42467                  
  D65                 176.41177                  
  D66                 124.20185                  
  D67                  59.4786                   
  D68                  78.54205                  
  D69                 -45.55981                  
  D70                -161.66349                  
  D71                 164.02781                  
  D72                  47.10928                  
  D73                  54.90241                  
  D74                 173.31583                  
  D75                 174.35966                  
  D76                  53.53292                  
  D77                 -64.39429                  
  D78                  59.21025                  
  D79                 -61.63                     
  D80                -179.15136                  
  D81                 174.06866                  
  D82                 178.61514                  
  D83                 -59.9333                   
  D84                -179.265                    
  D85                  61.50618                  
  D86                 -60.17225                  
  D87                -179.54521                  
  D88                  61.16786                  
  D89                 178.83757                  
  D90                -179.66502                  
  D91                   1.56252                  
  D92                -179.20096                  
  D93                  -2.62153                  
  D94                  -0.20969                  
  D95                 175.72745                  
  D96                 125.02471                  
  D97                 179.42256                  
  D98                  59.23091                  
  D99                  78.34178                  
  D100                -45.80541                  
  D101               -161.8721                   
  D102                164.56509                  
  D103                 47.70977                  
  D104                 54.67322                  
  D105                173.01195                  
  D106                174.1293                   
  D107                 53.30505                  
  D108                -64.64971                  
  D109                 59.27642                  
  D110                -61.56077                  
  D111               -179.0871                   
  D112                174.57455                  
  D113                178.96284                  
  D114                -59.95628                  
  D115               -179.3057                   
  D116                 61.46288                  
  D117                -60.20237                  
  D118               -179.58825                  
  D119                 61.12937                  
 

 GradGradGradGradGradGradGradGradGradGradGradGradGradGradGradGradGradGrad
 Berny optimization.
 Initialization pass.
                           ----------------------------
                           !    Initial Parameters    !
                           ! (Angstroms and Degrees)  !
 --------------------------                            --------------------------
 ! Name  Definition              Value          Derivative Info.                !
 --------------------------------------------------------------------------------
 ! R1    R(1,2)                  1.3825         estimate D2E/DX2                !
 ! R2    R(1,5)                  1.7646         estimate D2E/DX2                !
 ! R3    R(1,62)                 1.4395         estimate D2E/DX2                !
 ! R4    R(2,3)                  1.4228         estimate D2E/DX2                !
 ! R5    R(2,6)                  1.3701         estimate D2E/DX2                !
 ! R6    R(3,4)                  1.3819         estimate D2E/DX2                !
 ! R7    R(3,7)                  1.3687         estimate D2E/DX2                !
 ! R8    R(4,5)                  1.7633         estimate D2E/DX2                !
 ! R9    R(4,31)                 1.4418         estimate D2E/DX2                !
 ! R10   R(6,9)                  1.4378         estimate D2E/DX2                !
 ! R11   R(7,8)                  1.4393         estimate D2E/DX2                !
 ! R12   R(8,10)                 1.5431         estimate D2E/DX2                !
 ! R13   R(8,11)                 1.0915         estimate D2E/DX2                !
 ! R14   R(8,12)                 1.095          estimate D2E/DX2                !
 ! R15   R(9,10)                 1.5419         estimate D2E/DX2                !
 ! R16   R(9,13)                 1.0946         estimate D2E/DX2                !
 ! R17   R(9,14)                 1.0946         estimate D2E/DX2                !
 ! R18   R(10,15)                1.5374         estimate D2E/DX2                !
 ! R19   R(10,16)                1.5406         estimate D2E/DX2                !
 ! R20   R(15,18)                1.4176         estimate D2E/DX2                !
 ! R21   R(15,23)                1.1048         estimate D2E/DX2                !
 ! R22   R(15,24)                1.0976         estimate D2E/DX2                !
 ! R23   R(16,17)                1.4178         estimate D2E/DX2                !
 ! R24   R(16,21)                1.1049         estimate D2E/DX2                !
 ! R25   R(16,22)                1.0995         estimate D2E/DX2                !
 ! R26   R(17,20)                1.412          estimate D2E/DX2                !
 ! R27   R(18,19)                1.4121         estimate D2E/DX2                !
 ! R28   R(19,25)                1.101          estimate D2E/DX2                !
 ! R29   R(19,26)                1.0932         estimate D2E/DX2                !
 ! R30   R(19,27)                1.1022         estimate D2E/DX2                !
 ! R31   R(20,28)                1.1016         estimate D2E/DX2                !
 ! R32   R(20,29)                1.0929         estimate D2E/DX2                !
 ! R33   R(20,30)                1.1019         estimate D2E/DX2                !
 ! R34   R(31,32)                1.3822         estimate D2E/DX2                !
 ! R35   R(31,33)                1.7641         estimate D2E/DX2                !
 ! R36   R(32,34)                1.4333         estimate D2E/DX2                !
 ! R37   R(32,35)                1.3701         estimate D2E/DX2                !
 ! R38   R(33,36)                1.7371         estimate D2E/DX2                !
 ! R39   R(34,36)                1.3659         estimate D2E/DX2                !
 ! R40   R(34,37)                1.3687         estimate D2E/DX2                !
 ! R41   R(35,38)                1.4379         estimate D2E/DX2                !
 ! R42   R(36,39)                1.0807         estimate D2E/DX2                !
 ! R43   R(37,40)                1.4356         estimate D2E/DX2                !
 ! R44   R(38,41)                1.542          estimate D2E/DX2                !
 ! R45   R(38,42)                1.0946         estimate D2E/DX2                !
 ! R46   R(38,43)                1.0947         estimate D2E/DX2                !
 ! R47   R(40,41)                1.5444         estimate D2E/DX2                !
 ! R48   R(40,44)                1.0921         estimate D2E/DX2                !
 ! R49   R(40,45)                1.0957         estimate D2E/DX2                !
 ! R50   R(41,46)                1.5373         estimate D2E/DX2                !
 ! R51   R(41,47)                1.5406         estimate D2E/DX2                !
 ! R52   R(46,48)                1.4179         estimate D2E/DX2                !
 ! R53   R(46,49)                1.1048         estimate D2E/DX2                !
 ! R54   R(46,50)                1.0976         estimate D2E/DX2                !
 ! R55   R(47,51)                1.418          estimate D2E/DX2                !
 ! R56   R(47,52)                1.1049         estimate D2E/DX2                !
 ! R57   R(47,53)                1.0995         estimate D2E/DX2                !
 ! R58   R(48,54)                1.4119         estimate D2E/DX2                !
 ! R59   R(51,55)                1.4119         estimate D2E/DX2                !
 ! R60   R(54,56)                1.1011         estimate D2E/DX2                !
 ! R61   R(54,57)                1.0933         estimate D2E/DX2                !
 ! R62   R(54,58)                1.1022         estimate D2E/DX2                !
 ! R63   R(55,59)                1.1017         estimate D2E/DX2                !
 ! R64   R(55,60)                1.093          estimate D2E/DX2                !
 ! R65   R(55,61)                1.1019         estimate D2E/DX2                !
 ! R66   R(62,63)                1.3825         estimate D2E/DX2                !
 ! R67   R(62,64)                1.7646         estimate D2E/DX2                !
 ! R68   R(63,65)                1.4228         estimate D2E/DX2                !
 ! R69   R(63,66)                1.3701         estimate D2E/DX2                !
 ! R70   R(64,67)                1.7633         estimate D2E/DX2                !
 ! R71   R(65,67)                1.3819         estimate D2E/DX2                !
 ! R72   R(65,68)                1.3687         estimate D2E/DX2                !
 ! R73   R(66,69)                1.4378         estimate D2E/DX2                !
 ! R74   R(67,92)                1.4418         estimate D2E/DX2                !
 ! R75   R(68,70)                1.4393         estimate D2E/DX2                !
 ! R76   R(69,71)                1.5419         estimate D2E/DX2                !
 ! R77   R(69,72)                1.0946         estimate D2E/DX2                !
 ! R78   R(69,73)                1.0946         estimate D2E/DX2                !
 ! R79   R(70,71)                1.5431         estimate D2E/DX2                !
 ! R80   R(70,74)                1.0915         estimate D2E/DX2                !
 ! R81   R(70,75)                1.095          estimate D2E/DX2                !
 ! R82   R(71,76)                1.5374         estimate D2E/DX2                !
 ! R83   R(71,77)                1.5406         estimate D2E/DX2                !
 ! R84   R(76,78)                1.4176         estimate D2E/DX2                !
 ! R85   R(76,79)                1.1048         estimate D2E/DX2                !
 ! R86   R(76,80)                1.0976         estimate D2E/DX2                !
 ! R87   R(77,81)                1.4178         estimate D2E/DX2                !
 ! R88   R(77,82)                1.1049         estimate D2E/DX2                !
 ! R89   R(77,83)                1.0995         estimate D2E/DX2                !
 ! R90   R(78,84)                1.4121         estimate D2E/DX2                !
 ! R91   R(81,85)                1.412          estimate D2E/DX2                !
 ! R92   R(84,86)                1.101          estimate D2E/DX2                !
 ! R93   R(84,87)                1.0932         estimate D2E/DX2                !
 ! R94   R(84,88)                1.1022         estimate D2E/DX2                !
 ! R95   R(85,89)                1.1016         estimate D2E/DX2                !
 ! R96   R(85,90)                1.0929         estimate D2E/DX2                !
 ! R97   R(85,91)                1.1019         estimate D2E/DX2                !
 ! R98   R(92,93)                1.3822         estimate D2E/DX2                !
 ! R99   R(92,94)                1.7641         estimate D2E/DX2                !
 ! R100  R(93,95)                1.4333         estimate D2E/DX2                !
 ! R101  R(93,96)                1.3701         estimate D2E/DX2                !
 ! R102  R(94,97)                1.7371         estimate D2E/DX2                !
 ! R103  R(95,97)                1.3659         estimate D2E/DX2                !
 ! R104  R(95,98)                1.3687         estimate D2E/DX2                !
 ! R105  R(96,99)                1.4379         estimate D2E/DX2                !
 ! R106  R(97,100)               1.0807         estimate D2E/DX2                !
 ! R107  R(98,101)               1.4356         estimate D2E/DX2                !
 ! R108  R(99,102)               1.542          estimate D2E/DX2                !
 ! R109  R(99,103)               1.0946         estimate D2E/DX2                !
 ! R110  R(99,104)               1.0947         estimate D2E/DX2                !
 ! R111  R(101,102)              1.5444         estimate D2E/DX2                !
 ! R112  R(101,105)              1.0921         estimate D2E/DX2                !
 ! R113  R(101,106)              1.0957         estimate D2E/DX2                !
 ! R114  R(102,107)              1.5373         estimate D2E/DX2                !
 ! R115  R(102,108)              1.5406         estimate D2E/DX2                !
 ! R116  R(107,109)              1.4179         estimate D2E/DX2                !
 ! R117  R(107,110)              1.1048         estimate D2E/DX2                !
 ! R118  R(107,111)              1.0976         estimate D2E/DX2                !
 ! R119  R(108,112)              1.418          estimate D2E/DX2                !
 ! R120  R(108,113)              1.1049         estimate D2E/DX2                !
 ! R121  R(108,114)              1.0995         estimate D2E/DX2                !
 ! R122  R(109,115)              1.4119         estimate D2E/DX2                !
 ! R123  R(112,116)              1.4119         estimate D2E/DX2                !
 ! R124  R(115,117)              1.1011         estimate D2E/DX2                !
 ! R125  R(115,118)              1.0933         estimate D2E/DX2                !
 ! R126  R(115,119)              1.1022         estimate D2E/DX2                !
 ! R127  R(116,120)              1.1017         estimate D2E/DX2                !
 ! R128  R(116,121)              1.093          estimate D2E/DX2                !
 ! R129  R(116,122)              1.1019         estimate D2E/DX2                !
 ! A1    A(2,1,5)              109.8106         estimate D2E/DX2                !
 ! A2    A(2,1,62)             127.8624         estimate D2E/DX2                !
 ! A3    A(5,1,62)             122.3266         estimate D2E/DX2                !
 ! A4    A(1,2,3)              114.0329         estimate D2E/DX2                !
 ! A5    A(1,2,6)              122.4168         estimate D2E/DX2                !
 ! A6    A(3,2,6)              123.466          estimate D2E/DX2                !
 ! A7    A(2,3,4)              113.8502         estimate D2E/DX2                !
 ! A8    A(2,3,7)              123.6947         estimate D2E/DX2                !
 ! A9    A(4,3,7)              122.3285         estimate D2E/DX2                !
 ! A10   A(3,4,5)              109.9789         estimate D2E/DX2                !
 ! A11   A(3,4,31)             127.7043         estimate D2E/DX2                !
 ! A12   A(5,4,31)             122.3015         estimate D2E/DX2                !
 ! A13   A(1,5,4)               92.3191         estimate D2E/DX2                !
 ! A14   A(2,6,9)              116.0345         estimate D2E/DX2                !
 ! A15   A(3,7,8)              116.8274         estimate D2E/DX2                !
 ! A16   A(7,8,10)             113.7625         estimate D2E/DX2                !
 ! A17   A(7,8,11)             104.3908         estimate D2E/DX2                !
 ! A18   A(7,8,12)             109.7451         estimate D2E/DX2                !
 ! A19   A(10,8,11)            109.238          estimate D2E/DX2                !
 ! A20   A(10,8,12)            110.2866         estimate D2E/DX2                !
 ! A21   A(11,8,12)            109.1942         estimate D2E/DX2                !
 ! A22   A(6,9,10)             113.8171         estimate D2E/DX2                !
 ! A23   A(6,9,13)             109.8524         estimate D2E/DX2                !
 ! A24   A(6,9,14)             104.525          estimate D2E/DX2                !
 ! A25   A(10,9,13)            110.2001         estimate D2E/DX2                !
 ! A26   A(10,9,14)            109.8018         estimate D2E/DX2                !
 ! A27   A(13,9,14)            108.3879         estimate D2E/DX2                !
 ! A28   A(8,10,9)             111.7443         estimate D2E/DX2                !
 ! A29   A(8,10,15)            110.3909         estimate D2E/DX2                !
 ! A30   A(8,10,16)            108.336          estimate D2E/DX2                !
 ! A31   A(9,10,15)            109.3754         estimate D2E/DX2                !
 ! A32   A(9,10,16)            107.9796         estimate D2E/DX2                !
 ! A33   A(15,10,16)           108.9386         estimate D2E/DX2                !
 ! A34   A(10,15,18)           109.1621         estimate D2E/DX2                !
 ! A35   A(10,15,23)           109.7836         estimate D2E/DX2                !
 ! A36   A(10,15,24)           109.5228         estimate D2E/DX2                !
 ! A37   A(18,15,23)           110.1441         estimate D2E/DX2                !
 ! A38   A(18,15,24)           110.6166         estimate D2E/DX2                !
 ! A39   A(23,15,24)           107.5934         estimate D2E/DX2                !
 ! A40   A(10,16,17)           109.3917         estimate D2E/DX2                !
 ! A41   A(10,16,21)           109.4857         estimate D2E/DX2                !
 ! A42   A(10,16,22)           109.7706         estimate D2E/DX2                !
 ! A43   A(17,16,21)           110.1888         estimate D2E/DX2                !
 ! A44   A(17,16,22)           110.6907         estimate D2E/DX2                !
 ! A45   A(21,16,22)           107.2837         estimate D2E/DX2                !
 ! A46   A(16,17,20)           112.7303         estimate D2E/DX2                !
 ! A47   A(15,18,19)           112.7397         estimate D2E/DX2                !
 ! A48   A(18,19,25)           111.5565         estimate D2E/DX2                !
 ! A49   A(18,19,26)           107.1618         estimate D2E/DX2                !
 ! A50   A(18,19,27)           111.6801         estimate D2E/DX2                !
 ! A51   A(25,19,26)           109.0808         estimate D2E/DX2                !
 ! A52   A(25,19,27)           108.3648         estimate D2E/DX2                !
 ! A53   A(26,19,27)           108.9381         estimate D2E/DX2                !
 ! A54   A(17,20,28)           111.6096         estimate D2E/DX2                !
 ! A55   A(17,20,29)           107.1735         estimate D2E/DX2                !
 ! A56   A(17,20,30)           111.6176         estimate D2E/DX2                !
 ! A57   A(28,20,29)           109.0835         estimate D2E/DX2                !
 ! A58   A(28,20,30)           108.2927         estimate D2E/DX2                !
 ! A59   A(29,20,30)           109.0093         estimate D2E/DX2                !
 ! A60   A(4,31,32)            128.1048         estimate D2E/DX2                !
 ! A61   A(4,31,33)            122.411          estimate D2E/DX2                !
 ! A62   A(32,31,33)           109.4749         estimate D2E/DX2                !
 ! A63   A(31,32,34)           114.0545         estimate D2E/DX2                !
 ! A64   A(31,32,35)           122.232          estimate D2E/DX2                !
 ! A65   A(34,32,35)           123.6187         estimate D2E/DX2                !
 ! A66   A(31,33,36)            92.0606         estimate D2E/DX2                !
 ! A67   A(32,34,36)           112.5235         estimate D2E/DX2                !
 ! A68   A(32,34,37)           123.9183         estimate D2E/DX2                !
 ! A69   A(36,34,37)           123.4259         estimate D2E/DX2                !
 ! A70   A(32,35,38)           115.8839         estimate D2E/DX2                !
 ! A71   A(33,36,34)           111.8814         estimate D2E/DX2                !
 ! A72   A(33,36,39)           120.992          estimate D2E/DX2                !
 ! A73   A(34,36,39)           127.1157         estimate D2E/DX2                !
 ! A74   A(34,37,40)           116.5204         estimate D2E/DX2                !
 ! A75   A(35,38,41)           113.8621         estimate D2E/DX2                !
 ! A76   A(35,38,42)           109.839          estimate D2E/DX2                !
 ! A77   A(35,38,43)           104.4995         estimate D2E/DX2                !
 ! A78   A(41,38,42)           110.2174         estimate D2E/DX2                !
 ! A79   A(41,38,43)           109.7884         estimate D2E/DX2                !
 ! A80   A(42,38,43)           108.373          estimate D2E/DX2                !
 ! A81   A(37,40,41)           114.1764         estimate D2E/DX2                !
 ! A82   A(37,40,44)           104.4582         estimate D2E/DX2                !
 ! A83   A(37,40,45)           109.8795         estimate D2E/DX2                !
 ! A84   A(41,40,44)           108.9487         estimate D2E/DX2                !
 ! A85   A(41,40,45)           110.0888         estimate D2E/DX2                !
 ! A86   A(44,40,45)           109.0544         estimate D2E/DX2                !
 ! A87   A(38,41,40)           111.8488         estimate D2E/DX2                !
 ! A88   A(38,41,46)           109.325          estimate D2E/DX2                !
 ! A89   A(38,41,47)           107.9252         estimate D2E/DX2                !
 ! A90   A(40,41,46)           110.3415         estimate D2E/DX2                !
 ! A91   A(40,41,47)           108.3971         estimate D2E/DX2                !
 ! A92   A(46,41,47)           108.9258         estimate D2E/DX2                !
 ! A93   A(41,46,48)           109.1955         estimate D2E/DX2                !
 ! A94   A(41,46,49)           109.8093         estimate D2E/DX2                !
 ! A95   A(41,46,50)           109.5068         estimate D2E/DX2                !
 ! A96   A(48,46,49)           110.1121         estimate D2E/DX2                !
 ! A97   A(48,46,50)           110.5873         estimate D2E/DX2                !
 ! A98   A(49,46,50)           107.6113         estimate D2E/DX2                !
 ! A99   A(41,47,51)           109.4096         estimate D2E/DX2                !
 ! A100  A(41,47,52)           109.504          estimate D2E/DX2                !
 ! A101  A(41,47,53)           109.7896         estimate D2E/DX2                !
 ! A102  A(51,47,52)           110.168          estimate D2E/DX2                !
 ! A103  A(51,47,53)           110.6702         estimate D2E/DX2                !
 ! A104  A(52,47,53)           107.2698         estimate D2E/DX2                !
 ! A105  A(46,48,54)           112.714          estimate D2E/DX2                !
 ! A106  A(47,51,55)           112.7174         estimate D2E/DX2                !
 ! A107  A(48,54,56)           111.5749         estimate D2E/DX2                !
 ! A108  A(48,54,57)           107.1791         estimate D2E/DX2                !
 ! A109  A(48,54,58)           111.6872         estimate D2E/DX2                !
 ! A110  A(56,54,57)           109.0777         estimate D2E/DX2                !
 ! A111  A(56,54,58)           108.335          estimate D2E/DX2                !
 ! A112  A(57,54,58)           108.928          estimate D2E/DX2                !
 ! A113  A(51,55,59)           111.6182         estimate D2E/DX2                !
 ! A114  A(51,55,60)           107.1825         estimate D2E/DX2                !
 ! A115  A(51,55,61)           111.6214         estimate D2E/DX2                !
 ! A116  A(59,55,60)           109.0854         estimate D2E/DX2                !
 ! A117  A(59,55,61)           108.2793         estimate D2E/DX2                !
 ! A118  A(60,55,61)           108.9991         estimate D2E/DX2                !
 ! A119  A(1,62,63)            127.8624         estimate D2E/DX2                !
 ! A120  A(1,62,64)            122.3266         estimate D2E/DX2                !
 ! A121  A(63,62,64)           109.8106         estimate D2E/DX2                !
 ! A122  A(62,63,65)           114.0329         estimate D2E/DX2                !
 ! A123  A(62,63,66)           122.4168         estimate D2E/DX2                !
 ! A124  A(65,63,66)           123.466          estimate D2E/DX2                !
 ! A125  A(62,64,67)            92.3191         estimate D2E/DX2                !
 ! A126  A(63,65,67)           113.8502         estimate D2E/DX2                !
 ! A127  A(63,65,68)           123.6947         estimate D2E/DX2                !
 ! A128  A(67,65,68)           122.3285         estimate D2E/DX2                !
 ! A129  A(63,66,69)           116.0345         estimate D2E/DX2                !
 ! A130  A(64,67,65)           109.9789         estimate D2E/DX2                !
 ! A131  A(64,67,92)           122.3015         estimate D2E/DX2                !
 ! A132  A(65,67,92)           127.7043         estimate D2E/DX2                !
 ! A133  A(65,68,70)           116.8274         estimate D2E/DX2                !
 ! A134  A(66,69,71)           113.8171         estimate D2E/DX2                !
 ! A135  A(66,69,72)           109.8524         estimate D2E/DX2                !
 ! A136  A(66,69,73)           104.525          estimate D2E/DX2                !
 ! A137  A(71,69,72)           110.2001         estimate D2E/DX2                !
 ! A138  A(71,69,73)           109.8018         estimate D2E/DX2                !
 ! A139  A(72,69,73)           108.3879         estimate D2E/DX2                !
 ! A140  A(68,70,71)           113.7625         estimate D2E/DX2                !
 ! A141  A(68,70,74)           104.3908         estimate D2E/DX2                !
 ! A142  A(68,70,75)           109.7451         estimate D2E/DX2                !
 ! A143  A(71,70,74)           109.238          estimate D2E/DX2                !
 ! A144  A(71,70,75)           110.2866         estimate D2E/DX2                !
 ! A145  A(74,70,75)           109.1942         estimate D2E/DX2                !
 ! A146  A(69,71,70)           111.7443         estimate D2E/DX2                !
 ! A147  A(69,71,76)           109.3754         estimate D2E/DX2                !
 ! A148  A(69,71,77)           107.9796         estimate D2E/DX2                !
 ! A149  A(70,71,76)           110.3909         estimate D2E/DX2                !
 ! A150  A(70,71,77)           108.336          estimate D2E/DX2                !
 ! A151  A(76,71,77)           108.9386         estimate D2E/DX2                !
 ! A152  A(71,76,78)           109.1621         estimate D2E/DX2                !
 ! A153  A(71,76,79)           109.7836         estimate D2E/DX2                !
 ! A154  A(71,76,80)           109.5228         estimate D2E/DX2                !
 ! A155  A(78,76,79)           110.1441         estimate D2E/DX2                !
 ! A156  A(78,76,80)           110.6166         estimate D2E/DX2                !
 ! A157  A(79,76,80)           107.5934         estimate D2E/DX2                !
 ! A158  A(71,77,81)           109.3917         estimate D2E/DX2                !
 ! A159  A(71,77,82)           109.4857         estimate D2E/DX2                !
 ! A160  A(71,77,83)           109.7706         estimate D2E/DX2                !
 ! A161  A(81,77,82)           110.1888         estimate D2E/DX2                !
 ! A162  A(81,77,83)           110.6907         estimate D2E/DX2                !
 ! A163  A(82,77,83)           107.2837         estimate D2E/DX2                !
 ! A164  A(76,78,84)           112.7397         estimate D2E/DX2                !
 ! A165  A(77,81,85)           112.7303         estimate D2E/DX2                !
 ! A166  A(78,84,86)           111.5565         estimate D2E/DX2                !
 ! A167  A(78,84,87)           107.1618         estimate D2E/DX2                !
 ! A168  A(78,84,88)           111.6801         estimate D2E/DX2                !
 ! A169  A(86,84,87)           109.0808         estimate D2E/DX2                !
 ! A170  A(86,84,88)           108.3648         estimate D2E/DX2                !
 ! A171  A(87,84,88)           108.9381         estimate D2E/DX2                !
 ! A172  A(81,85,89)           111.6096         estimate D2E/DX2                !
 ! A173  A(81,85,90)           107.1735         estimate D2E/DX2                !
 ! A174  A(81,85,91)           111.6176         estimate D2E/DX2                !
 ! A175  A(89,85,90)           109.0835         estimate D2E/DX2                !
 ! A176  A(89,85,91)           108.2927         estimate D2E/DX2                !
 ! A177  A(90,85,91)           109.0093         estimate D2E/DX2                !
 ! A178  A(67,92,93)           128.1048         estimate D2E/DX2                !
 ! A179  A(67,92,94)           122.411          estimate D2E/DX2                !
 ! A180  A(93,92,94)           109.4749         estimate D2E/DX2                !
 ! A181  A(92,93,95)           114.0545         estimate D2E/DX2                !
 ! A182  A(92,93,96)           122.232          estimate D2E/DX2                !
 ! A183  A(95,93,96)           123.6187         estimate D2E/DX2                !
 ! A184  A(92,94,97)            92.0606         estimate D2E/DX2                !
 ! A185  A(93,95,97)           112.5235         estimate D2E/DX2                !
 ! A186  A(93,95,98)           123.9183         estimate D2E/DX2                !
 ! A187  A(97,95,98)           123.4259         estimate D2E/DX2                !
 ! A188  A(93,96,99)           115.8839         estimate D2E/DX2                !
 ! A189  A(94,97,95)           111.8814         estimate D2E/DX2                !
 ! A190  A(94,97,100)          120.992          estimate D2E/DX2                !
 ! A191  A(95,97,100)          127.1157         estimate D2E/DX2                !
 ! A192  A(95,98,101)          116.5204         estimate D2E/DX2                !
 ! A193  A(96,99,102)          113.8621         estimate D2E/DX2                !
 ! A194  A(96,99,103)          109.839          estimate D2E/DX2                !
 ! A195  A(96,99,104)          104.4995         estimate D2E/DX2                !
 ! A196  A(102,99,103)         110.2174         estimate D2E/DX2                !
 ! A197  A(102,99,104)         109.7884         estimate D2E/DX2                !
 ! A198  A(103,99,104)         108.373          estimate D2E/DX2                !
 ! A199  A(98,101,102)         114.1764         estimate D2E/DX2                !
 ! A200  A(98,101,105)         104.4582         estimate D2E/DX2                !
 ! A201  A(98,101,106)         109.8795         estimate D2E/DX2                !
 ! A202  A(102,101,105)        108.9487         estimate D2E/DX2                !
 ! A203  A(102,101,106)        110.0888         estimate D2E/DX2                !
 ! A204  A(105,101,106)        109.0544         estimate D2E/DX2                !
 ! A205  A(99,102,101)         111.8488         estimate D2E/DX2                !
 ! A206  A(99,102,107)         109.325          estimate D2E/DX2                !
 ! A207  A(99,102,108)         107.9252         estimate D2E/DX2                !
 ! A208  A(101,102,107)        110.3415         estimate D2E/DX2                !
 ! A209  A(101,102,108)        108.3971         estimate D2E/DX2                !
 ! A210  A(107,102,108)        108.9258         estimate D2E/DX2                !
 ! A211  A(102,107,109)        109.1955         estimate D2E/DX2                !
 ! A212  A(102,107,110)        109.8093         estimate D2E/DX2                !
 ! A213  A(102,107,111)        109.5068         estimate D2E/DX2                !
 ! A214  A(109,107,110)        110.1121         estimate D2E/DX2                !
 ! A215  A(109,107,111)        110.5873         estimate D2E/DX2                !
 ! A216  A(110,107,111)        107.6113         estimate D2E/DX2                !
 ! A217  A(102,108,112)        109.4096         estimate D2E/DX2                !
 ! A218  A(102,108,113)        109.504          estimate D2E/DX2                !
 ! A219  A(102,108,114)        109.7896         estimate D2E/DX2                !
 ! A220  A(112,108,113)        110.168          estimate D2E/DX2                !
 ! A221  A(112,108,114)        110.6702         estimate D2E/DX2                !
 ! A222  A(113,108,114)        107.2698         estimate D2E/DX2                !
 ! A223  A(107,109,115)        112.714          estimate D2E/DX2                !
 ! A224  A(108,112,116)        112.7174         estimate D2E/DX2                !
 ! A225  A(109,115,117)        111.5749         estimate D2E/DX2                !
 ! A226  A(109,115,118)        107.1791         estimate D2E/DX2                !
 ! A227  A(109,115,119)        111.6872         estimate D2E/DX2                !
 ! A228  A(117,115,118)        109.0777         estimate D2E/DX2                !
 ! A229  A(117,115,119)        108.335          estimate D2E/DX2                !
 ! A230  A(118,115,119)        108.928          estimate D2E/DX2                !
 ! A231  A(112,116,120)        111.6182         estimate D2E/DX2                !
 ! A232  A(112,116,121)        107.1825         estimate D2E/DX2                !
 ! A233  A(112,116,122)        111.6214         estimate D2E/DX2                !
 ! A234  A(120,116,121)        109.0854         estimate D2E/DX2                !
 ! A235  A(120,116,122)        108.2793         estimate D2E/DX2                !
 ! A236  A(121,116,122)        108.9991         estimate D2E/DX2                !
 ! D1    D(5,1,2,3)             -0.8837         estimate D2E/DX2                !
 ! D2    D(5,1,2,6)            175.8842         estimate D2E/DX2                !
 ! D3    D(62,1,2,3)           179.3407         estimate D2E/DX2                !
 ! D4    D(62,1,2,6)            -3.8913         estimate D2E/DX2                !
 ! D5    D(2,1,5,4)              0.8613         estimate D2E/DX2                !
 ! D6    D(62,1,5,4)          -179.3484         estimate D2E/DX2                !
 ! D7    D(2,1,62,63)         -176.598          estimate D2E/DX2                !
 ! D8    D(2,1,62,64)            3.6519         estimate D2E/DX2                !
 ! D9    D(5,1,62,63)            3.6519         estimate D2E/DX2                !
 ! D10   D(5,1,62,64)         -176.0983         estimate D2E/DX2                !
 ! D11   D(1,2,3,4)              0.4247         estimate D2E/DX2                !
 ! D12   D(1,2,3,7)            176.4118         estimate D2E/DX2                !
 ! D13   D(6,2,3,4)           -176.3047         estimate D2E/DX2                !
 ! D14   D(6,2,3,7)             -0.3176         estimate D2E/DX2                !
 ! D15   D(1,2,6,9)            124.2019         estimate D2E/DX2                !
 ! D16   D(3,2,6,9)            -59.337          estimate D2E/DX2                !
 ! D17   D(2,3,4,5)              0.2485         estimate D2E/DX2                !
 ! D18   D(2,3,4,31)           178.8376         estimate D2E/DX2                !
 ! D19   D(7,3,4,5)           -175.8004         estimate D2E/DX2                !
 ! D20   D(7,3,4,31)             2.7887         estimate D2E/DX2                !
 ! D21   D(2,3,7,8)             59.4786         estimate D2E/DX2                !
 ! D22   D(4,3,7,8)           -124.8655         estimate D2E/DX2                !
 ! D23   D(3,4,5,1)             -0.632          estimate D2E/DX2                !
 ! D24   D(31,4,5,1)          -179.3114         estimate D2E/DX2                !
 ! D25   D(3,4,31,32)         -179.665          estimate D2E/DX2                !
 ! D26   D(3,4,31,33)            1.5625         estimate D2E/DX2                !
 ! D27   D(5,4,31,32)           -1.2338         estimate D2E/DX2                !
 ! D28   D(5,4,31,33)          179.9937         estimate D2E/DX2                !
 ! D29   D(2,6,9,10)            78.542          estimate D2E/DX2                !
 ! D30   D(2,6,9,13)           -45.5598         estimate D2E/DX2                !
 ! D31   D(2,6,9,14)          -161.6635         estimate D2E/DX2                !
 ! D32   D(3,7,8,10)           -76.9831         estimate D2E/DX2                !
 ! D33   D(3,7,8,11)           164.0278         estimate D2E/DX2                !
 ! D34   D(3,7,8,12)            47.1093         estimate D2E/DX2                !
 ! D35   D(7,8,10,9)            66.3769         estimate D2E/DX2                !
 ! D36   D(7,8,10,15)          -55.5816         estimate D2E/DX2                !
 ! D37   D(7,8,10,16)         -174.7885         estimate D2E/DX2                !
 ! D38   D(11,8,10,9)         -177.4386         estimate D2E/DX2                !
 ! D39   D(11,8,10,15)          60.6029         estimate D2E/DX2                !
 ! D40   D(11,8,10,16)         -58.604          estimate D2E/DX2                !
 ! D41   D(12,8,10,9)          -57.4224         estimate D2E/DX2                !
 ! D42   D(12,8,10,15)        -179.3809         estimate D2E/DX2                !
 ! D43   D(12,8,10,16)          61.4122         estimate D2E/DX2                !
 ! D44   D(6,9,10,8)           -67.6381         estimate D2E/DX2                !
 ! D45   D(6,9,10,15)           54.9024         estimate D2E/DX2                !
 ! D46   D(6,9,10,16)          173.3158         estimate D2E/DX2                !
 ! D47   D(13,9,10,8)           56.2758         estimate D2E/DX2                !
 ! D48   D(13,9,10,15)         178.8164         estimate D2E/DX2                !
 ! D49   D(13,9,10,16)         -62.7702         estimate D2E/DX2                !
 ! D50   D(14,9,10,8)          175.5982         estimate D2E/DX2                !
 ! D51   D(14,9,10,15)         -61.8612         estimate D2E/DX2                !
 ! D52   D(14,9,10,16)          56.5522         estimate D2E/DX2                !
 ! D53   D(8,10,15,18)         -62.2952         estimate D2E/DX2                !
 ! D54   D(8,10,15,23)         176.8781         estimate D2E/DX2                !
 ! D55   D(8,10,15,24)          58.9509         estimate D2E/DX2                !
 ! D56   D(9,10,15,18)         174.3597         estimate D2E/DX2                !
 ! D57   D(9,10,15,23)          53.5329         estimate D2E/DX2                !
 ! D58   D(9,10,15,24)         -64.3943         estimate D2E/DX2                !
 ! D59   D(16,10,15,18)         56.5455         estimate D2E/DX2                !
 ! D60   D(16,10,15,23)        -64.2813         estimate D2E/DX2                !
 ! D61   D(16,10,15,24)        177.7915         estimate D2E/DX2                !
 ! D62   D(8,10,16,17)         -61.9793         estimate D2E/DX2                !
 ! D63   D(8,10,16,21)         177.1805         estimate D2E/DX2                !
 ! D64   D(8,10,16,22)          59.6591         estimate D2E/DX2                !
 ! D65   D(9,10,16,17)          59.2103         estimate D2E/DX2                !
 ! D66   D(9,10,16,21)         -61.63           estimate D2E/DX2                !
 ! D67   D(9,10,16,22)        -179.1514         estimate D2E/DX2                !
 ! D68   D(15,10,16,17)        177.9025         estimate D2E/DX2                !
 ! D69   D(15,10,16,21)         57.0623         estimate D2E/DX2                !
 ! D70   D(15,10,16,22)        -60.4591         estimate D2E/DX2                !
 ! D71   D(10,15,18,19)        174.0687         estimate D2E/DX2                !
 ! D72   D(23,15,18,19)        -65.325          estimate D2E/DX2                !
 ! D73   D(24,15,18,19)         53.49           estimate D2E/DX2                !
 ! D74   D(10,16,17,20)        178.6151         estimate D2E/DX2                !
 ! D75   D(21,16,17,20)        -60.973          estimate D2E/DX2                !
 ! D76   D(22,16,17,20)         57.5331         estimate D2E/DX2                !
 ! D77   D(16,17,20,28)        -60.1723         estimate D2E/DX2                !
 ! D78   D(16,17,20,29)       -179.5452         estimate D2E/DX2                !
 ! D79   D(16,17,20,30)         61.1679         estimate D2E/DX2                !
 ! D80   D(15,18,19,25)        -59.9333         estimate D2E/DX2                !
 ! D81   D(15,18,19,26)       -179.265          estimate D2E/DX2                !
 ! D82   D(15,18,19,27)         61.5062         estimate D2E/DX2                !
 ! D83   D(4,31,32,34)        -179.201          estimate D2E/DX2                !
 ! D84   D(4,31,32,35)          -2.6215         estimate D2E/DX2                !
 ! D85   D(33,31,32,34)         -0.3001         estimate D2E/DX2                !
 ! D86   D(33,31,32,35)        176.2793         estimate D2E/DX2                !
 ! D87   D(4,31,33,36)         179.5257         estimate D2E/DX2                !
 ! D88   D(32,31,33,36)          0.5502         estimate D2E/DX2                !
 ! D89   D(31,32,34,36)         -0.2097         estimate D2E/DX2                !
 ! D90   D(31,32,34,37)        175.7274         estimate D2E/DX2                !
 ! D91   D(35,32,34,36)       -176.735          estimate D2E/DX2                !
 ! D92   D(35,32,34,37)         -0.7979         estimate D2E/DX2                !
 ! D93   D(31,32,35,38)        125.0247         estimate D2E/DX2                !
 ! D94   D(34,32,35,38)        -58.7266         estimate D2E/DX2                !
 ! D95   D(31,33,36,34)         -0.6843         estimate D2E/DX2                !
 ! D96   D(31,33,36,39)       -179.5593         estimate D2E/DX2                !
 ! D97   D(32,34,36,33)          0.6319         estimate D2E/DX2                !
 ! D98   D(32,34,36,39)        179.4226         estimate D2E/DX2                !
 ! D99   D(37,34,36,33)       -175.3284         estimate D2E/DX2                !
 ! D100  D(37,34,36,39)          3.4622         estimate D2E/DX2                !
 ! D101  D(32,34,37,40)         59.2309         estimate D2E/DX2                !
 ! D102  D(36,34,37,40)       -125.2667         estimate D2E/DX2                !
 ! D103  D(32,35,38,41)         78.3418         estimate D2E/DX2                !
 ! D104  D(32,35,38,42)        -45.8054         estimate D2E/DX2                !
 ! D105  D(32,35,38,43)       -161.8721         estimate D2E/DX2                !
 ! D106  D(34,37,40,41)        -76.5317         estimate D2E/DX2                !
 ! D107  D(34,37,40,44)        164.5651         estimate D2E/DX2                !
 ! D108  D(34,37,40,45)         47.7098         estimate D2E/DX2                !
 ! D109  D(35,38,41,40)        -67.8396         estimate D2E/DX2                !
 ! D110  D(35,38,41,46)         54.6732         estimate D2E/DX2                !
 ! D111  D(35,38,41,47)        173.012          estimate D2E/DX2                !
 ! D112  D(42,38,41,40)         56.1034         estimate D2E/DX2                !
 ! D113  D(42,38,41,46)        178.6163         estimate D2E/DX2                !
 ! D114  D(42,38,41,47)        -63.045          estimate D2E/DX2                !
 ! D115  D(43,38,41,40)        175.4098         estimate D2E/DX2                !
 ! D116  D(43,38,41,46)        -62.0774         estimate D2E/DX2                !
 ! D117  D(43,38,41,47)         56.2613         estimate D2E/DX2                !
 ! D118  D(37,40,41,38)         66.5598         estimate D2E/DX2                !
 ! D119  D(37,40,41,46)        -55.3713         estimate D2E/DX2                !
 ! D120  D(37,40,41,47)       -174.5709         estimate D2E/DX2                !
 ! D121  D(44,40,41,38)       -177.1138         estimate D2E/DX2                !
 ! D122  D(44,40,41,46)         60.9551         estimate D2E/DX2                !
 ! D123  D(44,40,41,47)        -58.2445         estimate D2E/DX2                !
 ! D124  D(45,40,41,38)        -57.5696         estimate D2E/DX2                !
 ! D125  D(45,40,41,46)       -179.5007         estimate D2E/DX2                !
 ! D126  D(45,40,41,47)         61.2996         estimate D2E/DX2                !
 ! D127  D(38,41,46,48)        174.1293         estimate D2E/DX2                !
 ! D128  D(38,41,46,49)         53.305          estimate D2E/DX2                !
 ! D129  D(38,41,46,50)        -64.6497         estimate D2E/DX2                !
 ! D130  D(40,41,46,48)        -62.4611         estimate D2E/DX2                !
 ! D131  D(40,41,46,49)        176.7146         estimate D2E/DX2                !
 ! D132  D(40,41,46,50)         58.7598         estimate D2E/DX2                !
 ! D133  D(47,41,46,48)         56.4169         estimate D2E/DX2                !
 ! D134  D(47,41,46,49)        -64.4074         estimate D2E/DX2                !
 ! D135  D(47,41,46,50)        177.6379         estimate D2E/DX2                !
 ! D136  D(38,41,47,51)         59.2764         estimate D2E/DX2                !
 ! D137  D(38,41,47,52)        -61.5608         estimate D2E/DX2                !
 ! D138  D(38,41,47,53)       -179.0871         estimate D2E/DX2                !
 ! D139  D(40,41,47,51)        -62.0424         estimate D2E/DX2                !
 ! D140  D(40,41,47,52)        177.1204         estimate D2E/DX2                !
 ! D141  D(40,41,47,53)         59.594          estimate D2E/DX2                !
 ! D142  D(46,41,47,51)        177.8704         estimate D2E/DX2                !
 ! D143  D(46,41,47,52)         57.0332         estimate D2E/DX2                !
 ! D144  D(46,41,47,53)        -60.4931         estimate D2E/DX2                !
 ! D145  D(41,46,48,54)        174.5746         estimate D2E/DX2                !
 ! D146  D(49,46,48,54)        -64.7862         estimate D2E/DX2                !
 ! D147  D(50,46,48,54)         54.0126         estimate D2E/DX2                !
 ! D148  D(41,47,51,55)        178.9628         estimate D2E/DX2                !
 ! D149  D(52,47,51,55)        -60.6044         estimate D2E/DX2                !
 ! D150  D(53,47,51,55)         57.8587         estimate D2E/DX2                !
 ! D151  D(46,48,54,56)        -59.9563         estimate D2E/DX2                !
 ! D152  D(46,48,54,57)       -179.3057         estimate D2E/DX2                !
 ! D153  D(46,48,54,58)         61.4629         estimate D2E/DX2                !
 ! D154  D(47,51,55,59)        -60.2024         estimate D2E/DX2                !
 ! D155  D(47,51,55,60)       -179.5883         estimate D2E/DX2                !
 ! D156  D(47,51,55,61)         61.1294         estimate D2E/DX2                !
 ! D157  D(1,62,63,65)         179.3407         estimate D2E/DX2                !
 ! D158  D(1,62,63,66)          -3.8913         estimate D2E/DX2                !
 ! D159  D(64,62,63,65)         -0.8837         estimate D2E/DX2                !
 ! D160  D(64,62,63,66)        175.8842         estimate D2E/DX2                !
 ! D161  D(1,62,64,67)        -179.3484         estimate D2E/DX2                !
 ! D162  D(63,62,64,67)          0.8613         estimate D2E/DX2                !
 ! D163  D(62,63,65,67)          0.4247         estimate D2E/DX2                !
 ! D164  D(62,63,65,68)        176.4118         estimate D2E/DX2                !
 ! D165  D(66,63,65,67)       -176.3047         estimate D2E/DX2                !
 ! D166  D(66,63,65,68)         -0.3176         estimate D2E/DX2                !
 ! D167  D(62,63,66,69)        124.2019         estimate D2E/DX2                !
 ! D168  D(65,63,66,69)        -59.337          estimate D2E/DX2                !
 ! D169  D(62,64,67,65)         -0.632          estimate D2E/DX2                !
 ! D170  D(62,64,67,92)       -179.3114         estimate D2E/DX2                !
 ! D171  D(63,65,67,64)          0.2485         estimate D2E/DX2                !
 ! D172  D(63,65,67,92)        178.8376         estimate D2E/DX2                !
 ! D173  D(68,65,67,64)       -175.8004         estimate D2E/DX2                !
 ! D174  D(68,65,67,92)          2.7887         estimate D2E/DX2                !
 ! D175  D(63,65,68,70)         59.4786         estimate D2E/DX2                !
 ! D176  D(67,65,68,70)       -124.8655         estimate D2E/DX2                !
 ! D177  D(63,66,69,71)         78.542          estimate D2E/DX2                !
 ! D178  D(63,66,69,72)        -45.5598         estimate D2E/DX2                !
 ! D179  D(63,66,69,73)       -161.6635         estimate D2E/DX2                !
 ! D180  D(64,67,92,93)         -1.2338         estimate D2E/DX2                !
 ! D181  D(64,67,92,94)        179.9937         estimate D2E/DX2                !
 ! D182  D(65,67,92,93)       -179.665          estimate D2E/DX2                !
 ! D183  D(65,67,92,94)          1.5625         estimate D2E/DX2                !
 ! D184  D(65,68,70,71)        -76.9831         estimate D2E/DX2                !
 ! D185  D(65,68,70,74)        164.0278         estimate D2E/DX2                !
 ! D186  D(65,68,70,75)         47.1093         estimate D2E/DX2                !
 ! D187  D(66,69,71,70)        -67.6381         estimate D2E/DX2                !
 ! D188  D(66,69,71,76)         54.9024         estimate D2E/DX2                !
 ! D189  D(66,69,71,77)        173.3158         estimate D2E/DX2                !
 ! D190  D(72,69,71,70)         56.2758         estimate D2E/DX2                !
 ! D191  D(72,69,71,76)        178.8164         estimate D2E/DX2                !
 ! D192  D(72,69,71,77)        -62.7702         estimate D2E/DX2                !
 ! D193  D(73,69,71,70)        175.5982         estimate D2E/DX2                !
 ! D194  D(73,69,71,76)        -61.8612         estimate D2E/DX2                !
 ! D195  D(73,69,71,77)         56.5522         estimate D2E/DX2                !
 ! D196  D(68,70,71,69)         66.3769         estimate D2E/DX2                !
 ! D197  D(68,70,71,76)        -55.5816         estimate D2E/DX2                !
 ! D198  D(68,70,71,77)       -174.7885         estimate D2E/DX2                !
 ! D199  D(74,70,71,69)       -177.4386         estimate D2E/DX2                !
 ! D200  D(74,70,71,76)         60.6029         estimate D2E/DX2                !
 ! D201  D(74,70,71,77)        -58.604          estimate D2E/DX2                !
 ! D202  D(75,70,71,69)        -57.4224         estimate D2E/DX2                !
 ! D203  D(75,70,71,76)       -179.3809         estimate D2E/DX2                !
 ! D204  D(75,70,71,77)         61.4122         estimate D2E/DX2                !
 ! D205  D(69,71,76,78)        174.3597         estimate D2E/DX2                !
 ! D206  D(69,71,76,79)         53.5329         estimate D2E/DX2                !
 ! D207  D(69,71,76,80)        -64.3943         estimate D2E/DX2                !
 ! D208  D(70,71,76,78)        -62.2952         estimate D2E/DX2                !
 ! D209  D(70,71,76,79)        176.8781         estimate D2E/DX2                !
 ! D210  D(70,71,76,80)         58.9509         estimate D2E/DX2                !
 ! D211  D(77,71,76,78)         56.5455         estimate D2E/DX2                !
 ! D212  D(77,71,76,79)        -64.2813         estimate D2E/DX2                !
 ! D213  D(77,71,76,80)        177.7915         estimate D2E/DX2                !
 ! D214  D(69,71,77,81)         59.2103         estimate D2E/DX2                !
 ! D215  D(69,71,77,82)        -61.63           estimate D2E/DX2                !
 ! D216  D(69,71,77,83)       -179.1514         estimate D2E/DX2                !
 ! D217  D(70,71,77,81)        -61.9793         estimate D2E/DX2                !
 ! D218  D(70,71,77,82)        177.1805         estimate D2E/DX2                !
 ! D219  D(70,71,77,83)         59.6591         estimate D2E/DX2                !
 ! D220  D(76,71,77,81)        177.9025         estimate D2E/DX2                !
 ! D221  D(76,71,77,82)         57.0623         estimate D2E/DX2                !
 ! D222  D(76,71,77,83)        -60.4591         estimate D2E/DX2                !
 ! D223  D(71,76,78,84)        174.0687         estimate D2E/DX2                !
 ! D224  D(79,76,78,84)        -65.325          estimate D2E/DX2                !
 ! D225  D(80,76,78,84)         53.49           estimate D2E/DX2                !
 ! D226  D(71,77,81,85)        178.6151         estimate D2E/DX2                !
 ! D227  D(82,77,81,85)        -60.973          estimate D2E/DX2                !
 ! D228  D(83,77,81,85)         57.5331         estimate D2E/DX2                !
 ! D229  D(76,78,84,86)        -59.9333         estimate D2E/DX2                !
 ! D230  D(76,78,84,87)       -179.265          estimate D2E/DX2                !
 ! D231  D(76,78,84,88)         61.5062         estimate D2E/DX2                !
 ! D232  D(77,81,85,89)        -60.1723         estimate D2E/DX2                !
 ! D233  D(77,81,85,90)       -179.5452         estimate D2E/DX2                !
[...]
 ! D254  D(97,95,98,101)      -125.2667         -DE/DX =    0.0                 !
 ! D255  D(93,96,99,102)        78.3418         -DE/DX =    0.0                 !
 ! D256  D(93,96,99,103)       -45.8054         -DE/DX =    0.0                 !
 ! D257  D(93,96,99,104)      -161.8721         -DE/DX =    0.0                 !
 ! D258  D(95,98,101,102)      -76.5317         -DE/DX =    0.0                 !
 ! D259  D(95,98,101,105)      164.5651         -DE/DX =    0.0                 !
 ! D260  D(95,98,101,106)       47.7098         -DE/DX =    0.0                 !
 ! D261  D(96,99,102,101)      -67.8396         -DE/DX =    0.0                 !
 ! D262  D(96,99,102,107)       54.6732         -DE/DX =    0.0                 !
 ! D263  D(96,99,102,108)      173.012          -DE/DX =    0.0                 !
 ! D264  D(103,99,102,101)      56.1034         -DE/DX =    0.0                 !
 ! D265  D(103,99,102,107)     178.6163         -DE/DX =    0.0                 !
 ! D266  D(103,99,102,108)     -63.045          -DE/DX =    0.0                 !
 ! D267  D(104,99,102,101)     175.4098         -DE/DX =    0.0                 !
 ! D268  D(104,99,102,107)     -62.0774         -DE/DX =    0.0                 !
 ! D269  D(104,99,102,108)      56.2613         -DE/DX =    0.0                 !
 ! D270  D(98,101,102,99)       66.5598         -DE/DX =    0.0                 !
 ! D271  D(98,101,102,107)     -55.3713         -DE/DX =    0.0                 !
 ! D272  D(98,101,102,108)    -174.5709         -DE/DX =    0.0                 !
 ! D273  D(105,101,102,99)    -177.1138         -DE/DX =    0.0                 !
 ! D274  D(105,101,102,107)     60.9551         -DE/DX =    0.0                 !
 ! D275  D(105,101,102,108)    -58.2445         -DE/DX =    0.0                 !
 ! D276  D(106,101,102,99)     -57.5696         -DE/DX =    0.0                 !
 ! D277  D(106,101,102,107)   -179.5007         -DE/DX =    0.0                 !
 ! D278  D(106,101,102,108)     61.2996         -DE/DX =    0.0                 !
 ! D279  D(99,102,107,109)     174.1293         -DE/DX =    0.0                 !
 ! D280  D(99,102,107,110)      53.305          -DE/DX =    0.0                 !
 ! D281  D(99,102,107,111)     -64.6497         -DE/DX =    0.0                 !
 ! D282  D(101,102,107,109)    -62.4611         -DE/DX =    0.0                 !
 ! D283  D(101,102,107,110)    176.7146         -DE/DX =    0.0                 !
 ! D284  D(101,102,107,111)     58.7598         -DE/DX =    0.0                 !
 ! D285  D(108,102,107,109)     56.4169         -DE/DX =    0.0                 !
 ! D286  D(108,102,107,110)    -64.4074         -DE/DX =    0.0                 !
 ! D287  D(108,102,107,111)    177.6379         -DE/DX =    0.0                 !
 ! D288  D(99,102,108,112)      59.2764         -DE/DX =    0.0                 !
 ! D289  D(99,102,108,113)     -61.5608         -DE/DX =    0.0                 !
 ! D290  D(99,102,108,114)    -179.0871         -DE/DX =    0.0                 !
 ! D291  D(101,102,108,112)    -62.0424         -DE/DX =    0.0                 !
 ! D292  D(101,102,108,113)    177.1204         -DE/DX =    0.0                 !
 ! D293  D(101,102,108,114)     59.594          -DE/DX =    0.0                 !
 ! D294  D(107,102,108,112)    177.8704         -DE/DX =    0.0                 !
 ! D295  D(107,102,108,113)     57.0332         -DE/DX =    0.0                 !
 ! D296  D(107,102,108,114)    -60.4931         -DE/DX =    0.0                 !
 ! D297  D(102,107,109,115)    174.5746         -DE/DX =    0.0                 !
 ! D298  D(110,107,109,115)    -64.7862         -DE/DX =    0.0                 !
 ! D299  D(111,107,109,115)     54.0126         -DE/DX =    0.0                 !
 ! D300  D(102,108,112,116)    178.9628         -DE/DX =    0.0                 !
 ! D301  D(113,108,112,116)    -60.6044         -DE/DX =    0.0                 !
 ! D302  D(114,108,112,116)     57.8587         -DE/DX =    0.0                 !
 ! D303  D(107,109,115,117)    -59.9563         -DE/DX =    0.0                 !
 ! D304  D(107,109,115,118)   -179.3057         -DE/DX =    0.0                 !
 ! D305  D(107,109,115,119)     61.4629         -DE/DX =    0.0                 !
 ! D306  D(108,112,116,120)    -60.2024         -DE/DX =    0.0                 !
 ! D307  D(108,112,116,121)   -179.5883         -DE/DX =    0.0                 !
 ! D308  D(108,112,116,122)     61.1294         -DE/DX =    0.0                 !
 --------------------------------------------------------------------------------
 GradGradGradGradGradGradGradGradGradGradGradGradGradGradGradGradGradGrad

 Stoichiometry    C44H58O16S4
 Framework group  C2[X(C44H58O16S4)]
 Deg. of freedom   181
 Full point group                 C2      NOp   2
 Largest Abelian subgroup         C2      NOp   2
 Largest concise Abelian subgroup C2      NOp   2
                         Standard orientation:                         
 ---------------------------------------------------------------------
 Center     Atomic      Atomic             Coordinates (Angstroms)
 Number     Number       Type             X           Y           Z
 ---------------------------------------------------------------------
      1          6           0        0.168339    0.699774   -0.019464
      2          6           0        1.427508    1.269594   -0.051862
      3          6           0        1.419724    2.692376   -0.056714
      4          6           0        0.153420    3.244357   -0.018747
      5         16           0       -1.059895    1.965788    0.031298
      6          8           0        2.573927    0.520477   -0.011641
      7          8           0        2.553457    3.458032   -0.015489
      8          6           0        3.498693    3.277192   -1.085772
      9          6           0        3.498693    0.723473   -1.093660
     10          6           0        4.352998    1.999160   -0.951538
     11          1           0        4.148414    4.152179   -1.024635
     12          1           0        2.974728    3.284350   -2.047197
     13          1           0        2.959741    0.733708   -2.046287
     14          1           0        4.144830   -0.159863   -1.071951
     15          6           0        5.077756    1.979243    0.404177
     16          6           0        5.402323    1.996911   -2.079568
     17          8           0        4.743938    1.966255   -3.334900
     18          8           0        5.960796    3.085883    0.476042
     19          6           0        6.568736    3.217691    1.743791
     20          6           0        5.643026    1.993820   -4.423351
     21          1           0        6.058029    1.114227   -1.971229
     22          1           0        6.039360    2.889210   -1.996700
     23          1           0        5.641192    1.035197    0.513151
     24          1           0        4.339520    2.020544    1.215410
     25          1           0        5.820111    3.357647    2.538822
     26          1           0        7.214471    4.098808    1.701839
     27          1           0        7.181558    2.336737    1.995050
     28          1           0        6.261000    2.905733   -4.416103
     29          1           0        5.043965    1.975385   -5.337304
     30          1           0        6.315049    1.120553   -4.417008
     31          6           0       -0.198673    4.642235    0.010505
     32          6           0       -1.461222    5.203101    0.054879
     33         16           0        1.012745    5.923688   -0.039257
     34          6           0       -1.464062    6.636359    0.056185
     35          8           0       -2.600283    4.442287    0.024654
     36          6           0       -0.203997    7.162118    0.017433
     37          8           0       -2.600435    7.397876    0.011674
     38          6           0       -3.523538    4.651160    1.106975
     39          1           0        0.065820    8.208496    0.001239
     40          6           0       -3.541937    7.207407    1.078611
     41          6           0       -4.386252    5.920116    0.954854
     42          1           0       -2.982095    4.673614    2.058029
     43          1           0       -4.164430    3.763739    1.095654
     44          1           0       -4.204331    8.073386    1.015576
     45          1           0       -3.021242    7.224747    2.042524
     46          6           0       -5.109752    5.883870   -0.401050
     47          6           0       -5.436560    5.917318    2.081880
     48          8           0       -6.004771    6.980667   -0.481355
     49          1           0       -5.663325    4.933445   -0.504738
     50          1           0       -4.371223    5.928199   -1.211858
     51          8           0       -4.779476    5.900926    3.338325
     52          1           0       -6.085104    5.028645    1.979535
     53          1           0       -6.080949    6.803736    1.992417
     54          6           0       -6.620971    7.089962   -1.746997
     55          6           0       -5.680531    5.920992    4.425190
     56          1           0       -5.878478    7.227975   -2.548248
     57          1           0       -7.276322    7.964341   -1.712642
     58          1           0       -7.225357    6.199262   -1.984030
     59          1           0       -6.310507    6.824697    4.413506
     60          1           0       -5.082880    5.913784    5.340252
     61          1           0       -6.341173    5.039073    4.421245
     62          6           0       -0.168339   -0.699774   -0.019464
     63          6           0       -1.427508   -1.269594   -0.051862
     64         16           0        1.059895   -1.965788    0.031298
     65          6           0       -1.419724   -2.692376   -0.056714
     66          8           0       -2.573927   -0.520477   -0.011641
     67          6           0       -0.153420   -3.244357   -0.018747
     68          8           0       -2.553457   -3.458032   -0.015489
     69          6           0       -3.498693   -0.723473   -1.093660
     70          6           0       -3.498693   -3.277192   -1.085772
     71          6           0       -4.352998   -1.999160   -0.951538
     72          1           0       -2.959741   -0.733708   -2.046287
     73          1           0       -4.144830    0.159863   -1.071951
     74          1           0       -4.148414   -4.152179   -1.024635
     75          1           0       -2.974728   -3.284350   -2.047197
     76          6           0       -5.077756   -1.979243    0.404177
     77          6           0       -5.402323   -1.996911   -2.079568
     78          8           0       -5.960796   -3.085883    0.476042
     79          1           0       -5.641192   -1.035197    0.513151
     80          1           0       -4.339520   -2.020544    1.215410
     81          8           0       -4.743938   -1.966255   -3.334900
     82          1           0       -6.058029   -1.114227   -1.971229
     83          1           0       -6.039360   -2.889210   -1.996700
     84          6           0       -6.568736   -3.217691    1.743791
     85          6           0       -5.643026   -1.993820   -4.423351
     86          1           0       -5.820111   -3.357647    2.538822
     87          1           0       -7.214471   -4.098808    1.701839
     88          1           0       -7.181558   -2.336737    1.995050
     89          1           0       -6.261000   -2.905733   -4.416103
     90          1           0       -5.043965   -1.975385   -5.337304
     91          1           0       -6.315049   -1.120553   -4.417008
     92          6           0        0.198673   -4.642235    0.010505
     93          6           0        1.461222   -5.203101    0.054879
     94         16           0       -1.012745   -5.923688   -0.039257
     95          6           0        1.464062   -6.636359    0.056185
     96          8           0        2.600283   -4.442287    0.024654
     97          6           0        0.203997   -7.162118    0.017433
     98          8           0        2.600435   -7.397876    0.011674
     99          6           0        3.523538   -4.651160    1.106975
    100          1           0       -0.065820   -8.208496    0.001239
    101          6           0        3.541937   -7.207407    1.078611
    102          6           0        4.386252   -5.920116    0.954854
    103          1           0        2.982095   -4.673614    2.058029
    104          1           0        4.164430   -3.763739    1.095654
    105          1           0        4.204331   -8.073386    1.015576
    106          1           0        3.021242   -7.224747    2.042524
    107          6           0        5.109752   -5.883870   -0.401050
    108          6           0        5.436560   -5.917318    2.081880
    109          8           0        6.004771   -6.980667   -0.481355
    110          1           0        5.663325   -4.933445   -0.504738
    111          1           0        4.371223   -5.928199   -1.211858
    112          8           0        4.779476   -5.900926    3.338325
    113          1           0        6.085104   -5.028645    1.979535
    114          1           0        6.080949   -6.803736    1.992417
    115          6           0        6.620971   -7.089962   -1.746997
    116          6           0        5.680531   -5.920992    4.425190
    117          1           0        5.878478   -7.227975   -2.548248
    118          1           0        7.276322   -7.964341   -1.712642
    119          1           0        7.225357   -6.199262   -1.984030
    120          1           0        6.310507   -6.824697    4.413506
    121          1           0        5.082880   -5.913784    5.340252
    122          1           0        6.341173   -5.039073    4.421245
 ---------------------------------------------------------------------
 Rotational constants (GHZ):      0.0362037      0.0185898      0.0140552
 1\1\GINC-GCN-9-42\FOpt\RB3LYP\6-31G(d)\C44H58O16S4\CCOLLINS\11-Sep-201
 3\0\\# opt b3lyp/6-31g(d) geom=connectivity\\1_04_0\\0,1\C,0.,0.,0.\C,
 0.,0.,1.38248003\C,1.299470757,0.,1.9619353911\C,2.3245205298,0.009367
 7336,1.0352015809\S,1.6600005839,0.025605669,-0.5980546945\O,-1.154726
 532,0.065207371,2.1169357308\O,1.5300874972,0.0712691521,3.309160601\C
 ,0.9685734651,-0.9765375178,4.1206302937\C,-1.3581704214,-0.9934663176
 ,3.0682428649\C,-0.5470258523,-0.8262637154,4.3688199679\H,1.498412530
 3,-0.8966492593,5.071611784\H,1.1845812662,-1.9502892302,3.6688816571\
 H,-1.1331234471,-1.9587732222,2.6039060798\H,-2.4291254554,-0.95930729
 57,3.2921519462\C,-0.8547636617,0.5464586595,4.9889527918\C,-0.9891121
 254,-1.9286572291,5.350057939\O,-0.7541316372,-3.1996046388,4.76718070
 53\O,-0.2099521376,0.6435195925,6.2476718211\C,-0.3318997042,1.9260218
 023,6.8260045906\C,-1.1068709918,-4.265948986,5.6229431312\H,-2.062835
 007,-1.8076608441,5.5809210969\H,-0.4381266759,-1.8272890562,6.2961130
 5\H,-1.9463616417,0.6656470552,5.1104694214\H,-0.5074347691,1.33979093
 04,4.314576267\H,0.1094864957,2.7032556621,6.1832082688\H,0.2044748028
 ,1.9027772649,7.7782980868\H,-1.385412617,2.1888674982,7.0151725804\H,
 -0.5306666268,-4.2405686733,6.561492059\H,-0.8829125979,-5.1941447073,
 5.0911355074\H,-2.1794238393,-4.2464913839,5.8749395579\C,3.7434313507
 ,0.0350688429,1.2899948048\C,4.7750717071,0.0509637045,0.370193073\S,4
 .4113626214,0.0190782815,2.9227053539\C,6.0820909079,0.0572762184,0.95
 83250566\O,4.5511362306,-0.0094200786,-0.980146937\C,6.0415350286,0.05
 07896903,2.3236093496\O,7.2439459651,-0.0119336623,0.238230772\C,5.129
 2128603,1.051050457,-1.7603239188\H,6.8835798067,0.0448137542,3.001027
 4279\C,7.4655993545,1.0313032028,-0.7228028595\C,6.6398885229,0.882660
 0044,-2.0194942445\H,4.9329116138,2.0149606734,-1.2802079532\H,4.58474
 10404,1.0211323143,-2.7095562854\H,8.5271629294,0.9553768878,-0.967704
 5002\H,7.2732760428,2.0075500494,-0.2639934646\C,6.895936545,-0.490419
 8532,-2.6616256806\C,7.077774864,1.9840082384,-3.0036842449\O,8.263554
 5921,-0.5884044738,-3.0228617073\H,6.2574544699,-0.6107945612,-3.55513
 14268\H,6.6265071619,-1.2830169535,-1.951697934\O,6.8004726482,3.25587
 03346,-2.441409933\H,6.5347046607,1.8629041506,-3.9582690116\H,8.15036
 24496,1.8821684274,-3.2231431294\C,8.6085892348,-1.868145749,-3.509391
 115\C,7.1974085738,4.3207503786,-3.2792945634\H,8.4229457452,-2.650761
 3254,-2.7574629569\H,9.6755574704,-1.8465113876,-3.7466980178\H,8.0445
 686996,-2.122839916,-4.4214356737\H,8.2803286272,4.2970753031,-3.48032
 35272\H,6.9506754211,5.2499299632,-2.7593664933\H,6.666138778,4.297749
 1664,-4.2444204071\C,-1.1363707751,-0.0130765391,-0.8835027773\C,-1.13
 68059507,-0.0778532824,-2.2644643327\S,-2.7956895148,0.0628116206,-0.2
 878272669\C,-2.4363418806,-0.0875543986,-2.8436922835\O,0.0184608369,-
 0.0626425598,-3.0008051674\C,-3.460881674,-0.0210106987,-1.9187379635\
 O,-2.6664048794,-0.0763980539,-4.1928496841\C,0.2073708557,-1.16736374
 76,-3.9013987274\C,-2.1192670777,-1.1685212232,-4.9541558623\C,-0.6018
 647056,-1.0504068238,-5.2086370023\H,-0.0304719729,-2.1067446182,-3.39
 2412893\H,1.2786174888,-1.1581176727,-4.1263252963\H,-2.64828494,-1.12
 61718204,-5.9080028067\H,-2.3481889095,-2.1170480674,-4.4573458192\C,-
 0.2759166926,0.287494987,-5.8923113654\C,-0.1749303309,-2.2034028294,-
 6.137004892\O,-0.9197629134,0.3341213394,-7.1543986636\H,0.8171450454,
 0.38618982,-6.0189355402\H,-0.6123489601,1.1161465393,-5.2559568391\O,
 -0.4267726605,-3.4423732696,-5.4952910094\H,0.9002477793,-2.1077856083
 ,-6.3729458331\H,-0.7248026828,-2.1390842576,-7.0869439758\C,-0.780786
 718,1.5863636058,-7.7921500594\C,-0.0886535723,-4.5522839743,-6.300038
 3973\H,-1.2114939209,2.3987191951,-7.186616358\H,-1.3177247316,1.52572
 90788,-8.7424772909\H,0.2761011502,1.8258865679,-7.9930944061\H,-0.664
 7605808,-4.5631725949,-7.2389270345\H,-0.3248883444,-5.4514510114,-5.7
 253943513\H,0.9839844756,-4.5590593466,-6.5523321166\C,-4.8793995769,0
 .0117748049,-2.1749022109\C,-5.9104438938,0.0846015686,-1.2571802615\S
 ,-5.5479992595,-0.0717290562,-3.8052804453\C,-7.2174455522,0.080900278
 1,-1.8453734566\O,-5.6869144049,0.0845533174,0.0945763758\C,-7.1774101
 966,0.0099058389,-3.2088414668\O,-8.379898489,0.0611146154,-1.12319296
 84\C,-6.2504531075,1.1880814715,0.8240256292\H,-8.0196724954,-0.016496
 5998,-3.8855005422\C,-8.5872205919,1.1511175878,-0.2121660267\C,-7.763
 1720862,1.0523203428,1.0903257738\H,-6.0413771354,2.1257139761,0.29933
 43396\H,-5.7061333533,1.1953643436,1.7737886042\H,-9.6496308641,1.1010
 113695,0.0356900262\H,-8.3819498304,2.1021238052,-0.7161534387\C,-8.03
 74328507,-0.2856018706,1.7960076074\C,-8.1859200148,2.2043542323,2.021
 6927495\O,-9.4061295687,-0.3481795188,2.1610074807\H,-7.4003435311,-0.
 3725415325,2.6943731472\H,-7.778894384,-1.1141388461,1.1240819398\O,-7
 .8917410076,3.4446353273,1.400529623\H,-7.6442245276,2.1208291517,2.98
 10743642\H,-9.2597092833,2.1273212187,2.2453447105\C,-9.7681645385,-1.
 5989699667,2.7068567608\C,-8.2740779703,4.5528392766,2.1874735504\H,-9
 .5932835941,-2.4183801385,1.9924827507\H,-10.8346713117,-1.5519147478,
 2.9425534655\H,-9.2073278725,-1.8182009101,3.6300109122\H,-9.357154965
 2,4.553153297,2.3890501362\H,-8.0150535429,5.453239806,1.6246570795\H,
 -7.7428611644,4.5679528334,3.1527842939\\Version=ES64L-G09RevD.01\Stat
 e=1-A\HF=-4507.6791248\RMSD=4.603e-09\RMSF=9.880e-07\Dipole=-0.000176,
 -0.0261975,0.0006141\Quadrupole=-11.743247,-6.387663,18.13091,-0.83857
 84,-37.3006714,0.8259311\PG=C02 [X(C44H58O16S4)]\\@


 We find comfort among those who agree with us -- growth among those who don't.
 -- Frank A. Clark
 Job cpu time:       0 days  1 hours 26 minutes  6.4 seconds.
 File lengths (MBytes):  RWF=    670 Int=      0 D2E=      0 Chk=    193 Scr=      1
 Normal termination of Gaussian 09 at Wed Sep 11 22:01:06 2013.
