 Entering Gaussian System, Link 0=/usr/local/Dist/g09/g09
 Input=Rey2015_ABB_a_BBA_pbeh1pbe_6311g_ssTD_DCM_0.gjf
 Output=Rey2015_ABB_a_BBA_pbeh1pbe_6311g_ssTD_DCM_0.log
 Initial command:
 /usr/local/Dist/g09/l1.exe "/scratch/ung/dwheeler/Gau-8156.inp" -scrdir="/scratch/ung/dwheeler/"
 Entering Link 1 = /usr/local/Dist/g09/l1.exe PID=      8157.

 Copyright (c) 1988,1990,1992,1993,1995,1998,2003,2009,2013,
            Gaussian, Inc.  All Rights Reserved.

 This is part of the Gaussian(R) 09 program.  It is based on
 the Gaussian(R) 03 system (copyright 2003, Gaussian, Inc.),
 the Gaussian(R) 98 system (copyright 1998, Gaussian, Inc.),
 the Gaussian(R) 94 system (copyright 1995, Gaussian, Inc.),
 the Gaussian 92(TM) system (copyright 1992, Gaussian, Inc.),
 the Gaussian 90(TM) system (copyright 1990, Gaussian, Inc.),
 the Gaussian 88(TM) system (copyright 1988, Gaussian, Inc.),
 the Gaussian 86(TM) system (copyright 1986, Carnegie Mellon
 University), and the Gaussian 82(TM) system (copyright 1983,
 Carnegie Mellon University). Gaussian is a federally registered
 trademark of Gaussian, Inc.

 This software contains proprietary and confidential information,
 including trade secrets, belonging to Gaussian, Inc.

 This software is provided under written license and may be
 used, copied, transmitted, or stored only in accord with that
 written license.

 The following legend is applicable only to US Government
 contracts under FAR:

                    RESTRICTED RIGHTS LEGEND

 Use, reproduction and disclosure by the US Government is
 subject to restrictions as set forth in subparagraphs (a)
 and (c) of the Commercial Computer Software - Restricted
 Rights clause in FAR 52.227-19.

 Gaussian, Inc.
 340 Quinnipiac St., Bldg. 40, Wallingford CT 06492


 ---------------------------------------------------------------
 Warning -- This program may not be used in any manner that
 competes with the business of Gaussian, Inc. or will provide
 assistance to any competitor of Gaussian, Inc.  The licensee
 of this program is prohibited from giving any competitor of
 Gaussian, Inc. access to this program.  By using this program,
 the user acknowledges that Gaussian, Inc. is engaged in the
 business of creating and licensing software in the field of
 computational chemistry and represents and warrants to the
 licensee that it is not a competitor of Gaussian, Inc. and that
 it will not use this program in any manner prohibited above.
 ---------------------------------------------------------------


 Cite this work as:
 Gaussian 09, Revision D.01,
 M. J. Frisch, G. W. Trucks, H. B. Schlegel, G. E. Scuseria,
 M. A. Robb, J. R. Cheeseman, G. Scalmani, V. Barone, B. Mennucci,
 G. A. Petersson, H. Nakatsuji, M. Caricato, X. Li, H. P. Hratchian,
 A. F. Izmaylov, J. Bloino, G. Zheng, J. L. Sonnenberg, M. Hada,
 M. Ehara, K. Toyota, R. Fukuda, J. Hasegawa, M. Ishida, T. Nakajima,
 Y. Honda, O. Kitao, H. Nakai, T. Vreven, J. A. Montgomery, Jr.,
 J. E. Peralta, F. Ogliaro, M. Bearpark, J. J. Heyd, E. Brothers,
 K. N. Kudin, V. N. Staroverov, T. Keith, R. Kobayashi, J. Normand,
 K. Raghavachari, A. Rendell, J. C. Burant, S. S. Iyengar, J. Tomasi,
 M. Cossi, N. Rega, J. M. Millam, M. Klene, J. E. Knox, J. B. Cross,
 V. Bakken, C. Adamo, J. Jaramillo, R. Gomperts, R. E. Stratmann,
 O. Yazyev, A. J. Austin, R. Cammi, C. Pomelli, J. W. Ochterski,
 R. L. Martin, K. Morokuma, V. G. Zakrzewski, G. A. Voth,
 P. Salvador, J. J. Dannenberg, S. Dapprich, A. D. Daniels,
 O. Farkas, J. B. Foresman, J. V. Ortiz, J. Cioslowski,
 and D. J. Fox, Gaussian, Inc., Wallingford CT, 2013.

 ******************************************
 Gaussian 09:  ES64L-G09RevD.01 24-Apr-2013
                11-Feb-2015
 ******************************************
 %nprocshared=16
 Will use up to   16 processors via shared memory.
 %mem=15GB
 %chk=Rey2015_ABB_a_BBA_pbeh1pbe_6311g_ssTD_DCM_0.chk
 Default route:  MaxDisk=200GB
 ----------------------------------------------------------------------
 # td=(nstates=10) pbeh1pbe/6-311g(d,p) scrf=(cpcm,solvent=dichlorometh
 ane) geom=connectivity
 ----------------------------------------------------------------------
 1/38=1,57=2/1;
 2/12=2,17=6,18=5,40=1/2;
 3/5=4,6=6,7=101,11=9,16=1,25=1,30=1,70=2101,72=9,74=-26/1,2,8,3;
 4//1;
 5/5=2,38=5,53=9/2;
 8/6=1,10=2,108=10/1;
 9/41=10,42=1,70=2/14;
 6/7=2,8=2,9=2,10=2/1;
 99/5=1,9=1/99;
 -------------------------------------------
 Rey2015_ABB_a_BBA_pbeh1pbe_6311g_ssTD_DCM_0
 -------------------------------------------
 Symbolic Z-matrix:
 Charge =  0 Multiplicity = 1
 C                    -10.51332   0.92049   0.14782
 C                    -11.3094   0.16691  -0.68154
 C                    -12.69814   0.4576   -0.57002
 C                    -12.98211   1.43377   0.33839
 S                    -11.52087   2.01547   1.0718
 O                    -10.82683  -0.78234  -1.52109
 O                    -13.63646  -0.18181  -1.31956
 C                    -11.78349  -1.17809  -2.50852
 H                    -11.84561  -0.40495  -3.28243
 H                    -11.40639  -2.10041  -2.94904
 C                    -13.13741  -1.39773  -1.8776
 H                    -13.86208  -1.71521  -2.62697
 H                    -13.07024  -2.16163  -1.0941
 C                    -9.08595   0.86972   0.28755
 C                    -8.30047   1.61702   1.13762
 S                    -8.10058  -0.23199  -0.64172
 C                    -6.91729   1.31874   1.0357
 O                    -8.83679   2.55743   1.95254
 C                    -6.63219   0.33048   0.11851
 O                    -5.94003   1.89473   1.77463
 C                    -8.23228   2.6931    3.23937
 C                    -6.09308   3.28919   2.04759
 H                    -9.00516   3.1181    3.88324
 H                    -7.96625   1.70317   3.62038
 C                    -6.99117   3.59182   3.25229
 H                    -5.08403   3.66373   2.23149
 H                    -6.49516   3.78777   1.16138
 C                    -7.35187   5.07806   3.20904
 C                    -6.26539   3.37384   4.58142
 H                    -7.92175   5.33938   4.11521
 H                    -6.42752   5.67978   3.22089
 O                    -8.10304   5.37367   2.06076
 H                    -5.42622   4.08385   4.65758
 H                    -6.95349   3.593     5.41523
 O                    -5.79521   2.05498   4.67783
 C                    -8.4301    6.741     1.98193
 C                    -5.1376    1.81666   5.90006
 H                    -9.00439   6.88675   1.06681
 H                    -9.0384    7.05728   2.84036
 H                    -7.52828   7.3676    1.94328
 H                    -4.80585   0.77821   5.89483
 H                    -4.26323   2.47113   6.01822
 H                    -5.80995   1.97438   6.75464
 C                    -5.33936  -0.1869   -0.22469
 C                    -5.04368  -1.14145  -1.17525
 S                    -3.8748    0.35056   0.55404
 C                    -3.65501  -1.43642  -1.2823
 O                    -6.02367  -1.73372  -1.89919
 C                    -2.88612  -0.71262  -0.40391
 O                    -3.12067  -2.25853  -2.21092
 C                    -5.72509  -2.01181  -3.26865
 C                    -3.83725  -3.46778  -2.4551
 H                    -6.69193  -2.05516  -3.77471
 H                    -5.14809  -1.1831   -3.68805
 C                    -4.9613   -3.3221   -3.4878
 H                    -3.09485  -4.18515  -2.81121
 H                    -4.25425  -3.83945  -1.5154
 C                    -5.86928  -4.54831  -3.38006
 C                    -4.42866  -3.31935  -4.92217
 H                    -6.62645  -4.51162  -4.17988
 H                    -5.27109  -5.46119  -3.54004
 O                    -6.49279  -4.59633  -2.12349
 H                    -3.96336  -4.2948   -5.13754
 H                    -5.26896  -3.19664  -5.62608
 O                    -3.49519  -2.28669  -5.10178
 C                    -7.31948  -5.7277   -1.98726
 C                    -3.00121  -2.24482  -6.41949
 H                    -7.75933  -5.69231  -0.99035
 H                    -8.12527  -5.72718  -2.73418
 H                    -6.74608  -6.65906  -2.09358
 H                    -2.2887   -1.4215   -6.47484
 H                    -2.48882  -3.17965  -6.6852
 H                    -3.80784  -2.07064  -7.14509
 C                    -1.44372  -0.73353  -0.21794
 C                    -0.71594  -1.9612   -0.09842
 C                    -0.69906   0.42033  -0.10581
 C                     0.71599  -1.9612    0.09813
 N                    -1.23623  -3.18618  -0.14309
 H                    -1.20166   1.37756  -0.1952
 C                     0.69898   0.42033   0.10648
 N                     1.23634  -3.18617   0.14233
 C                     1.4437   -0.73354   0.21815
 S                     0.00009  -4.2274   -0.00065
 H                     1.20152   1.37755   0.19625
 C                     2.8861   -0.71263   0.40409
 C                     3.65506  -1.43677   1.28213
 S                     3.87469   0.35105  -0.55339
 C                     5.04371  -1.14169   1.17517
 O                     3.1208   -2.25936   2.21039
 C                     5.33931  -0.18671   0.22502
 O                     6.02377  -1.73422   1.89881
 C                     3.83735  -3.46881   2.4537
 C                     5.72519  -2.01329   3.26806
 H                     3.09497  -4.18637   2.80947
 H                     4.25419  -3.8399    1.5137
 C                     4.96156  -3.3238    3.48632
 H                     6.69204  -2.05687   3.7741
 H                     5.1481   -1.18493   3.68803
 C                     4.42912  -3.32218   4.92078
 C                     5.86964  -4.54985   3.37751
 H                     3.96399  -4.29785   5.1355
 H                     5.26948  -3.19984   5.62467
 O                     3.49552  -2.28978   5.10125
 H                     6.6269   -4.51372   4.17727
 H                     5.27154  -5.46291   3.53682
 O                     6.49301  -4.59681   2.12083
 C                     3.0017   -2.24892   6.41905
 C                     7.31973  -5.72802   1.98358
 H                     2.28909  -1.42573   6.47507
 H                     2.48947  -3.18402   6.68415
 H                     3.8084   -2.07515   7.14467
 H                     7.75943  -5.69183   0.98664
 H                     8.12563  -5.72806   2.73038
 H                     6.74639  -6.6595    2.08925
 C                     6.63211   0.33085  -0.11804
 C                     6.91711   1.31962  -1.03471
 S                     8.10059  -0.23212   0.64164
 C                     8.3003    1.61786  -1.13669
 O                     5.93975   1.89608  -1.77313
 C                     9.08586   0.87006  -0.28716
 O                     8.83651   2.55867  -1.95123
 C                     6.09301   3.29056  -2.04584
 C                     8.23202   2.69465  -3.23804
 H                     5.08398   3.66531  -2.22942
 H                     6.49538   3.78889  -1.15962
 C                     6.99086   3.59333  -3.25067
 H                     9.00488   3.11987  -3.88179
 H                     7.96603   1.7048   -3.61931
 C                     6.26486   3.37549  -4.5797
 C                     7.35155   5.07957  -3.2073
 H                     5.42562   4.08544  -4.65561
 H                     6.9528    3.59485  -5.41359
 O                     5.79479   2.05661  -4.67626
 H                     7.92117   5.34102  -4.11361
 H                     6.42722   5.68131  -3.21878
 O                     8.10309   5.37499  -2.05921
 C                     5.1371    1.81841  -5.89847
 C                     8.43028   6.74228  -1.98032
 H                     4.80545   0.77994  -5.89338
 H                     4.26266   2.47281  -6.01645
 H                     5.80936   1.97634  -6.75309
 H                     9.00491   6.88786  -1.06538
 H                     9.03829   7.05863  -2.83892
 H                     7.52852   7.36893  -1.94126
 C                     10.51326   0.9207   -0.1476
 C                     11.30945   0.16654   0.68112
 S                     11.52068   2.01634  -1.07095
 C                     12.69817   0.4573    0.56961
 O                     10.82699  -0.78329   1.52007
 C                     12.98202   1.43411  -0.33816
 O                     13.6366  -0.18263   1.31857
 C                     11.78377  -1.17967   2.50713
 C                     13.13761  -1.39891   1.8759
 H                     11.84598  -0.40702   3.28153
 H                     11.40672  -2.10227   2.94712
 H                     13.86238  -1.71686   2.62498
 H                     13.07034  -2.16231   1.09193
 C                    -14.32017   1.98291   0.68944
 H                    -14.45715   3.00137   0.31147
 H                    -15.09493   1.35401   0.24681
 H                    -14.47809   2.00712   1.77124
 C                     14.32004   1.98346  -0.68903
 H                     14.45696   3.00181  -0.31072
 H                     15.09484   1.35447  -0.24662
 H                     14.47795   2.00805  -1.77083

 Stoichiometry    C64H72N2O20S7
 Framework group  C1[X(C64H72N2O20S7)]
 Deg. of freedom   489
 Full point group                 C1      NOp   1
 Largest Abelian subgroup         C1      NOp   1
 Largest concise Abelian subgroup C1      NOp   1
                         Standard orientation:
 ---------------------------------------------------------------------
 Center     Atomic      Atomic             Coordinates (Angstroms)
 Number     Number       Type             X           Y           Z
 ---------------------------------------------------------------------
      1          6           0      -10.513320    0.920488    0.147816
      2          6           0      -11.309405    0.166909   -0.681544
      3          6           0      -12.698139    0.457595   -0.570022
      4          6           0      -12.982106    1.433771    0.338391
      5         16           0      -11.520872    2.015467    1.071801
      6          8           0      -10.826829   -0.782337   -1.521092
      7          8           0      -13.636461   -0.181805   -1.319561
      8          6           0      -11.783491   -1.178091   -2.508519
      9          1           0      -11.845605   -0.404950   -3.282435
     10          1           0      -11.406388   -2.100410   -2.949044
     11          6           0      -13.137409   -1.397725   -1.877598
     12          1           0      -13.862082   -1.715205   -2.626972
     13          1           0      -13.070245   -2.161627   -1.094099
     14          6           0       -9.085945    0.869721    0.287549
     15          6           0       -8.300473    1.617015    1.137616
     16         16           0       -8.100582   -0.231989   -0.641720
     17          6           0       -6.917285    1.318741    1.035696
     18          8           0       -8.836785    2.557425    1.952539
     19          6           0       -6.632193    0.330480    0.118505
     20          8           0       -5.940026    1.894732    1.774628
     21          6           0       -8.232283    2.693098    3.239367
     22          6           0       -6.093082    3.289189    2.047592
     23          1           0       -9.005164    3.118104    3.883243
     24          1           0       -7.966245    1.703165    3.620383
     25          6           0       -6.991173    3.591824    3.252293
     26          1           0       -5.084029    3.663725    2.231492
     27          1           0       -6.495156    3.787773    1.161377
     28          6           0       -7.351866    5.078062    3.209041
     29          6           0       -6.265392    3.373842    4.581423
     30          1           0       -7.921751    5.339383    4.115210
     31          1           0       -6.427520    5.679784    3.220892
     32          8           0       -8.103036    5.373673    2.060756
     33          1           0       -5.426218    4.083845    4.657583
     34          1           0       -6.953489    3.593001    5.415228
     35          8           0       -5.795207    2.054983    4.677826
     36          6           0       -8.430102    6.740997    1.981932
     37          6           0       -5.137603    1.816655    5.900056
     38          1           0       -9.004389    6.886746    1.066806
     39          1           0       -9.038396    7.057282    2.840357
     40          1           0       -7.528275    7.367596    1.943280
     41          1           0       -4.805845    0.778214    5.894827
     42          1           0       -4.263232    2.471126    6.018223
     43          1           0       -5.809947    1.974380    6.754643
     44          6           0       -5.339362   -0.186900   -0.224693
     45          6           0       -5.043680   -1.141446   -1.175248
     46         16           0       -3.874795    0.350561    0.554036
     47          6           0       -3.655013   -1.436417   -1.282295
     48          8           0       -6.023675   -1.733722   -1.899188
     49          6           0       -2.886118   -0.712623   -0.403914
     50          8           0       -3.120674   -2.258526   -2.210924
     51          6           0       -5.725089   -2.011815   -3.268651
     52          6           0       -3.837252   -3.467780   -2.455102
     53          1           0       -6.691929   -2.055164   -3.774707
     54          1           0       -5.148088   -1.183103   -3.688047
     55          6           0       -4.961299   -3.322095   -3.487797
     56          1           0       -3.094848   -4.185154   -2.811211
     57          1           0       -4.254246   -3.839453   -1.515396
     58          6           0       -5.869284   -4.548314   -3.380063
     59          6           0       -4.428662   -3.319352   -4.922171
     60          1           0       -6.626451   -4.511620   -4.179884
     61          1           0       -5.271088   -5.461193   -3.540036
     62          8           0       -6.492789   -4.596332   -2.123490
     63          1           0       -3.963357   -4.294800   -5.137536
     64          1           0       -5.268956   -3.196636   -5.626075
     65          8           0       -3.495192   -2.286690   -5.101783
     66          6           0       -7.319479   -5.727696   -1.987260
     67          6           0       -3.001211   -2.244815   -6.419491
     68          1           0       -7.759325   -5.692309   -0.990354
     69          1           0       -8.125265   -5.727175   -2.734176
     70          1           0       -6.746080   -6.659064   -2.093583
     71          1           0       -2.288704   -1.421495   -6.474836
     72          1           0       -2.488823   -3.179653   -6.685197
     73          1           0       -3.807843   -2.070639   -7.145090
     74          6           0       -1.443720   -0.733534   -0.217938
     75          6           0       -0.715944   -1.961202   -0.098418
     76          6           0       -0.699059    0.420328   -0.105809
     77          6           0        0.715990   -1.961202    0.098130
     78          7           0       -1.236228   -3.186178   -0.143093
     79          1           0       -1.201657    1.377560   -0.195196
     80          6           0        0.698975    0.420325    0.106479
     81          7           0        1.236335   -3.186170    0.142331
     82          6           0        1.443700   -0.733540    0.218145
     83         16           0        0.000088   -4.227401   -0.000648
     84          1           0        1.201516    1.377551    0.196251
     85          6           0        2.886100   -0.712627    0.404092
     86          6           0        3.655060   -1.436774    1.282128
     87         16           0        3.874687    0.351050   -0.553394
     88          6           0        5.043708   -1.141687    1.175174
     89          8           0        3.120798   -2.259360    2.210385
     90          6           0        5.339311   -0.186708    0.225023
     91          8           0        6.023772   -1.734215    1.898807
     92          6           0        3.837347   -3.468805    2.453702
     93          6           0        5.725191   -2.013287    3.268064
     94          1           0        3.094968   -4.186374    2.809466
     95          1           0        4.254187   -3.839899    1.513699
     96          6           0        4.961561   -3.323803    3.486322
     97          1           0        6.692035   -2.056874    3.774095
     98          1           0        5.148102   -1.184927    3.688033
     99          6           0        4.429122   -3.322179    4.920779
    100          6           0        5.869641   -4.549847    3.377511
    101          1           0        3.963987   -4.297850    5.135500
    102          1           0        5.269481   -3.199841    5.624668
    103          8           0        3.495519   -2.289783    5.101248
    104          1           0        6.626896   -4.513723    4.177275
    105          1           0        5.271544   -5.462907    3.536822
    106          8           0        6.493006   -4.596807    2.120827
    107          6           0        3.001701   -2.248919    6.419049
    108          6           0        7.319729   -5.728023    1.983579
    109          1           0        2.289090   -1.425734    6.475073
    110          1           0        2.489471   -3.184015    6.684152
    111          1           0        3.808402   -2.075152    7.144669
    112          1           0        7.759427   -5.691826    0.986637
    113          1           0        8.125626   -5.728062    2.730376
    114          1           0        6.746388   -6.659502    2.089246
    115          6           0        6.632107    0.330846   -0.118039
    116          6           0        6.917106    1.319624   -1.034709
    117         16           0        8.100594   -0.232124    0.641641
    118          6           0        8.300296    1.617857   -1.136691
    119          8           0        5.939750    1.896080   -1.773132
    120          6           0        9.085863    0.870055   -0.287160
    121          8           0        8.836507    2.558667   -1.951227
    122          6           0        6.093014    3.290557   -2.045841
    123          6           0        8.232023    2.694651   -3.238036
    124          1           0        5.083984    3.665314   -2.229423
    125          1           0        6.495376    3.788891   -1.159616
    126          6           0        6.990862    3.593326   -3.250674
    127          1           0        9.004885    3.119870   -3.881791
    128          1           0        7.966029    1.704803   -3.619305
    129          6           0        6.264864    3.375493   -4.579703
    130          6           0        7.351553    5.079566   -3.207301
    131          1           0        5.425615    4.085435   -4.655607
    132          1           0        6.952803    3.594854   -5.413586
    133          8           0        5.794789    2.056607   -4.676257
    134          1           0        7.921165    5.341019   -4.113606
    135          1           0        6.427215    5.681305   -3.218776
    136          8           0        8.103094    5.374985   -2.059210
    137          6           0        5.137103    1.818409   -5.898468
    138          6           0        8.430285    6.742275   -1.980318
    139          1           0        4.805447    0.779936   -5.893376
    140          1           0        4.262659    2.472814   -6.016455
    141          1           0        5.809357    1.976336   -6.753088
    142          1           0        9.004911    6.887859   -1.065378
    143          1           0        9.038292    7.058633   -2.838919
    144          1           0        7.528516    7.368931   -1.941256
    145          6           0       10.513258    0.920701   -0.147603
    146          6           0       11.309453    0.166538    0.681117
    147         16           0       11.520683    2.016338   -1.070947
    148          6           0       12.698173    0.457295    0.569611
    149          8           0       10.826988   -0.783293    1.520069
    150          6           0       12.982018    1.434110   -0.338155
    151          8           0       13.636597   -0.182634    1.318571
    152          6           0       11.783769   -1.179673    2.507129
    153          6           0       13.137609   -1.398906    1.875900
    154          1           0       11.845977   -0.407021    3.281526
    155          1           0       11.406721   -2.102270    2.947118
    156          1           0       13.862379   -1.716861    2.624978
    157          1           0       13.070342   -2.162311    1.091926
    158          6           0      -14.320169    1.982908    0.689435
    159          1           0      -14.457152    3.001371    0.311466
    160          1           0      -15.094932    1.354013    0.246805
    161          1           0      -14.478085    2.007122    1.771242
    162          6           0       14.320039    1.983460   -0.689026
    163          1           0       14.456957    3.001805   -0.310719
    164          1           0       15.094845    1.354465   -0.246618
    165          1           0       14.477945    2.008047   -1.770828
 ---------------------------------------------------------------------
 Rotational constants (GHZ):      0.0259612      0.0053908      0.0053065
 Standard basis: 6-311G(d,p) (5D, 7F)
 There are  2255 symmetry adapted cartesian basis functions of A   symmetry.
 There are  2162 symmetry adapted basis functions of A   symmetry.
  2162 basis functions,  3650 primitive gaussians,  2255 cartesian basis functions
   371 alpha electrons      371 beta electrons
       nuclear repulsion energy     19575.5251923405 Hartrees.
 NAtoms=  165 NActive=  165 NUniq=  165 SFac= 1.00D+00 NAtFMM=   60 NAOKFM=T Big=T
 Integral buffers will be    131072 words long.
 Regular integral format.
 Two-electron integral symmetry is turned on.
 ------------------------------------------------------------------------------
 Polarizable Continuum Model (PCM)
 =================================
 Model                : C-PCM.
 Atomic radii         : UFF (Universal Force Field).
 Polarization charges : Total charges.
 Charge compensation  : None.
 Solution method      : On-the-fly selection.
 Cavity type          : Scaled VdW (van der Waals Surface) (Alpha=1.100).
 Cavity algorithm     : GePol (No added spheres)
                        Default sphere list used, NSphG=  165.
                        Lebedev-Laikov grids with approx.  5.0 points / Ang**2.
                        Smoothing algorithm: Karplus/York (Gamma=1.0000).
                        Polarization charges: spherical gaussians, with
                                              point-specific exponents (IZeta= 3).
                        Self-potential: point-specific (ISelfS= 7).
                        Self-field    : sphere-specific E.n sum rule (ISelfD= 2).
 Solvent              : Dichloromethane, Eps=   8.930000 Eps(inf)=   2.028346
 ------------------------------------------------------------------------------
 One-electron integrals computed using PRISM.
 NBasis=  2162 RedAO= T EigKep=  1.28D-04  NBF=  2162
 NBsUse=  2162 1.00D-06 EigRej= -1.00D+00 NBFU=  2162
 ExpMin= 7.71D-02 ExpMax= 9.34D+04 ExpMxC= 3.17D+03 IAcc=2 IRadAn=         4 AccDes= 0.00D+00
 Harris functional with IExCor= 2709 and IRadAn=       4 diagonalized for initial guess.
 HarFok:  IExCor= 2709 AccDes= 0.00D+00 IRadAn=         4 IDoV= 1 UseB2=F ITyADJ=14
 ICtDFT=  3500011 ScaDFX=  1.000000  1.000000  1.000000  1.000000
 FoFCou: FMM=F IPFlag=           0 FMFlag=      100000 FMFlg1=        2001
         NFxFlg=           0 DoJE=T BraDBF=F KetDBF=T FulRan=T
         wScrn=  0.000000 ICntrl=     500 IOpCl=  0 I1Cent=   200000004 NGrid=           0
         NMat0=    1 NMatS0=      1 NMatT0=    0 NMatD0=    1 NMtDS0=    0 NMtDT0=    0
 Petite list used in FoFCou.
 Requested convergence on RMS density matrix=1.00D-08 within 128 cycles.
 Requested convergence on MAX density matrix=1.00D-06.
 Requested convergence on             energy=1.00D-06.
 No special actions if energy rises.
 Inv3:  Mode=1 IEnd=   384291372.
 Iteration    1 A*A^-1 deviation from unit magnitude is 1.99D-14 for  11315.
 Iteration    1 A*A^-1 deviation from orthogonality  is 6.18D-15 for  11294   6689.
 Iteration    1 A^-1*A deviation from unit magnitude is 2.01D-14 for  11315.
 Iteration    1 A^-1*A deviation from orthogonality  is 3.97D-15 for   7072   6377.
 Error on total polarization charges =  0.02711
 SCF Done:  E(RPBEh1PBE) =  -6879.24036746     A.U. after   13 cycles
            NFock= 13  Conv=0.58D-08     -V/T= 2.0025
 DoSCS=F DFT=T ScalE2(SS,OS)=  1.000000  1.000000
 ExpMin= 7.71D-02 ExpMax= 9.34D+04 ExpMxC= 3.17D+03 IAcc=3 IRadAn=         5 AccDes= 0.00D+00
 HarFok:  IExCor=  205 AccDes= 0.00D+00 IRadAn=         5 IDoV=-2 UseB2=F ITyADJ=14
 ICtDFT= 12500011 ScaDFX=  1.000000  1.000000  1.000000  1.000000
 Range of M.O.s used for correlation:   122  2162
 NBasis=  2162 NAE=   371 NBE=   371 NFC=   121 NFV=     0
 NROrb=   2041 NOA=   250 NOB=   250 NVA=  1791 NVB=  1791

 **** Warning!!: The smallest alpha delta epsilon is  0.88101459D-01

 Would need an additional       8212647500000 words for in-memory AO integral storage.
 NEqPCM:  Using non-equilibrium solvation (IEInf=1, Eps=   8.9300, EpsInf=   2.0283)
 Inv3:  Mode=1 IEnd=   384291372.
 Iteration    1 A*A^-1 deviation from unit magnitude is 1.99D-14 for  11315.
 Iteration    1 A*A^-1 deviation from orthogonality  is 6.18D-15 for  11294   6689.
 Iteration    1 A^-1*A deviation from unit magnitude is 2.01D-14 for  11315.
 Iteration    1 A^-1*A deviation from orthogonality  is 3.97D-15 for   7072   6377.
 Orbital symmetries:
       Occupied  (A) (A) (A) (A) (A) (A) (A) (A) (A) (A) (A) (A)
                 (A) (A) (A) (A) (A) (A) (A) (A) (A) (A) (A) (A)
                 (A) (A) (A) (A) (A) (A) (A) (A) (A) (A) (A) (A)
                 (A) (A) (A) (A) (A) (A) (A) (A) (A) (A) (A) (A)
                 (A) (A) (A) (A) (A) (A) (A) (A) (A) (A) (A) (A)
                 (A) (A) (A) (A) (A) (A) (A) (A) (A) (A) (A) (A)
                 (A) (A) (A) (A) (A) (A) (A) (A) (A) (A) (A) (A)
                 (A) (A) (A) (A) (A) (A) (A) (A) (A) (A) (A) (A)
                 (A) (A) (A) (A) (A) (A) (A) (A) (A) (A) (A) (A)
                 (A) (A) (A) (A) (A) (A) (A) (A) (A) (A) (A) (A)
                 (A) (A) (A) (A) (A) (A) (A) (A) (A) (A) (A) (A)
                 (A) (A) (A) (A) (A) (A) (A) (A) (A) (A) (A) (A)
                 (A) (A) (A) (A) (A) (A) (A) (A) (A) (A) (A) (A)
                 (A) (A) (A) (A) (A) (A) (A) (A) (A) (A) (A) (A)
                 (A) (A) (A) (A) (A) (A) (A) (A) (A) (A) (A) (A)
                 (A) (A) (A) (A) (A) (A) (A) (A) (A) (A) (A) (A)
                 (A) (A) (A) (A) (A) (A) (A) (A) (A) (A) (A) (A)
                 (A) (A) (A) (A) (A) (A) (A) (A) (A) (A) (A) (A)
                 (A) (A) (A) (A) (A) (A) (A) (A) (A) (A) (A) (A)
                 (A) (A) (A) (A) (A) (A) (A) (A) (A) (A) (A) (A)
                 (A) (A) (A) (A) (A) (A) (A) (A) (A) (A) (A) (A)
                 (A) (A) (A) (A) (A) (A) (A) (A) (A) (A) (A) (A)
                 (A) (A) (A) (A) (A) (A) (A) (A) (A) (A) (A) (A)
                 (A) (A) (A) (A) (A) (A) (A) (A) (A) (A) (A) (A)
                 (A) (A) (A) (A) (A) (A) (A) (A) (A) (A) (A) (A)
                 (A) (A) (A) (A) (A) (A) (A) (A) (A) (A) (A) (A)
                 (A) (A) (A) (A) (A) (A) (A) (A) (A) (A) (A) (A)
                 (A) (A) (A) (A) (A) (A) (A) (A) (A) (A) (A) (A)
                 (A) (A) (A) (A) (A) (A) (A) (A) (A) (A) (A) (A)
                 (A) (A) (A) (A) (A) (A) (A) (A) (A) (A) (A) (A)
                 (A) (A) (A) (A) (A) (A) (A) (A) (A) (A) (A)
       Virtual   (A) (A) (A) (A) (A) (A) (A) (A) (A) (A) (A) (A)
                 (A) (A) (A) (A) (A) (A) (A) (A) (A) (A) (A) (A)
                 (A) (A) (A) (A) (A) (A) (A) (A) (A) (A) (A) (A)
                 (A) (A) (A) (A) (A) (A) (A) (A) (A) (A) (A) (A)
                 (A) (A) (A) (A) (A) (A) (A) (A) (A) (A) (A) (A)
                 (A) (A) (A) (A) (A) (A) (A) (A) (A) (A) (A) (A)
                 (A) (A) (A) (A) (A) (A) (A) (A) (A) (A) (A) (A)
                 (A) (A) (A) (A) (A) (A) (A) (A) (A) (A) (A) (A)
                 (A) (A) (A) (A) (A) (A) (A) (A) (A) (A) (A) (A)
                 (A) (A) (A) (A) (A) (A) (A) (A) (A) (A) (A) (A)
                 (A) (A) (A) (A) (A) (A) (A) (A) (A) (A) (A) (A)
                 (A) (A) (A) (A) (A) (A) (A) (A) (A) (A) (A) (A)
                 (A) (A) (A) (A) (A) (A) (A) (A) (A) (A) (A) (A)
                 (A) (A) (A) (A) (A) (A) (A) (A) (A) (A) (A) (A)
                 (A) (A) (A) (A) (A) (A) (A) (A) (A) (A) (A) (A)
                 (A) (A) (A) (A) (A) (A) (A) (A) (A) (A) (A) (A)
                 (A) (A) (A) (A) (A) (A) (A) (A) (A) (A) (A) (A)
                 (A) (A) (A) (A) (A) (A) (A) (A) (A) (A) (A) (A)
                 (A) (A) (A) (A) (A) (A) (A) (A) (A) (A) (A) (A)
                 (A) (A) (A) (A) (A) (A) (A) (A) (A) (A) (A) (A)
                 (A) (A) (A) (A) (A) (A) (A) (A) (A) (A) (A) (A)
                 (A) (A) (A) (A) (A) (A) (A) (A) (A) (A) (A) (A)
                 (A) (A) (A) (A) (A) (A) (A) (A) (A) (A) (A) (A)
                 (A) (A) (A) (A) (A) (A) (A) (A) (A) (A) (A) (A)
                 (A) (A) (A) (A) (A) (A) (A) (A) (A) (A) (A) (A)
                 (A) (A) (A) (A) (A) (A) (A) (A) (A) (A) (A) (A)
                 (A) (A) (A) (A) (A) (A) (A) (A) (A) (A) (A) (A)
                 (A) (A) (A) (A) (A) (A) (A) (A) (A) (A) (A) (A)
                 (A) (A) (A) (A) (A) (A) (A) (A) (A) (A) (A) (A)
                 (A) (A) (A) (A) (A) (A) (A) (A) (A) (A) (A) (A)
                 (A) (A) (A) (A) (A) (A) (A) (A) (A) (A) (A) (A)
                 (A) (A) (A) (A) (A) (A) (A) (A) (A) (A) (A) (A)
                 (A) (A) (A) (A) (A) (A) (A) (A) (A) (A) (A) (A)
                 (A) (A) (A) (A) (A) (A) (A) (A) (A) (A) (A) (A)
                 (A) (A) (A) (A) (A) (A) (A) (A) (A) (A) (A) (A)
                 (A) (A) (A) (A) (A) (A) (A) (A) (A) (A) (A) (A)
                 (A) (A) (A) (A) (A) (A) (A) (A) (A) (A) (A) (A)
                 (A) (A) (A) (A) (A) (A) (A) (A) (A) (A) (A) (A)
                 (A) (A) (A) (A) (A) (A) (A) (A) (A) (A) (A) (A)
                 (A) (A) (A) (A) (A) (A) (A) (A) (A) (A) (A) (A)
                 (A) (A) (A) (A) (A) (A) (A) (A) (A) (A) (A) (A)
                 (A) (A) (A) (A) (A) (A) (A) (A) (A) (A) (A) (A)
                 (A) (A) (A) (A) (A) (A) (A) (A) (A) (A) (A) (A)
                 (A) (A) (A) (A) (A) (A) (A) (A) (A) (A) (A) (A)
                 (A) (A) (A) (A) (A) (A) (A) (A) (A) (A) (A) (A)
                 (A) (A) (A) (A) (A) (A) (A) (A) (A) (A) (A) (A)
                 (A) (A) (A) (A) (A) (A) (A) (A) (A) (A) (A) (A)
                 (A) (A) (A) (A) (A) (A) (A) (A) (A) (A) (A) (A)
                 (A) (A) (A) (A) (A) (A) (A) (A) (A) (A) (A) (A)
                 (A) (A) (A) (A) (A) (A) (A) (A) (A) (A) (A) (A)
                 (A) (A) (A) (A) (A) (A) (A) (A) (A) (A) (A) (A)
                 (A) (A) (A) (A) (A) (A) (A) (A) (A) (A) (A) (A)
                 (A) (A) (A) (A) (A) (A) (A) (A) (A) (A) (A) (A)
                 (A) (A) (A) (A) (A) (A) (A) (A) (A) (A) (A) (A)
                 (A) (A) (A) (A) (A) (A) (A) (A) (A) (A) (A) (A)
                 (A) (A) (A) (A) (A) (A) (A) (A) (A) (A) (A) (A)
                 (A) (A) (A) (A) (A) (A) (A) (A) (A) (A) (A) (A)
                 (A) (A) (A) (A) (A) (A) (A) (A) (A) (A) (A) (A)
                 (A) (A) (A) (A) (A) (A) (A) (A) (A) (A) (A) (A)
                 (A) (A) (A) (A) (A) (A) (A) (A) (A) (A) (A) (A)
                 (A) (A) (A) (A) (A) (A) (A) (A) (A) (A) (A) (A)
                 (A) (A) (A) (A) (A) (A) (A) (A) (A) (A) (A) (A)
                 (A) (A) (A) (A) (A) (A) (A) (A) (A) (A) (A) (A)
                 (A) (A) (A) (A) (A) (A) (A) (A) (A) (A) (A) (A)
                 (A) (A) (A) (A) (A) (A) (A) (A) (A) (A) (A) (A)
                 (A) (A) (A) (A) (A) (A) (A) (A) (A) (A) (A) (A)
                 (A) (A) (A) (A) (A) (A) (A) (A) (A) (A) (A) (A)
                 (A) (A) (A) (A) (A) (A) (A) (A) (A) (A) (A) (A)
                 (A) (A) (A) (A) (A) (A) (A) (A) (A) (A) (A) (A)
                 (A) (A) (A) (A) (A) (A) (A) (A) (A) (A) (A) (A)
                 (A) (A) (A) (A) (A) (A) (A) (A) (A) (A) (A) (A)
                 (A) (A) (A) (A) (A) (A) (A) (A) (A) (A) (A) (A)
                 (A) (A) (A) (A) (A) (A) (A) (A) (A) (A) (A) (A)
                 (A) (A) (A) (A) (A) (A) (A) (A) (A) (A) (A) (A)
                 (A) (A) (A) (A) (A) (A) (A) (A) (A) (A) (A) (A)
                 (A) (A) (A) (A) (A) (A) (A) (A) (A) (A) (A) (A)
                 (A) (A) (A) (A) (A) (A) (A) (A) (A) (A) (A) (A)
                 (A) (A) (A) (A) (A) (A) (A) (A) (A) (A) (A) (A)
                 (A) (A) (A) (A) (A) (A) (A) (A) (A) (A) (A) (A)
                 (A) (A) (A) (A) (A) (A) (A) (A) (A) (A) (A) (A)
                 (A) (A) (A) (A) (A) (A) (A) (A) (A) (A) (A) (A)
                 (A) (A) (A) (A) (A) (A) (A) (A) (A) (A) (A) (A)
                 (A) (A) (A) (A) (A) (A) (A) (A) (A) (A) (A) (A)
                 (A) (A) (A) (A) (A) (A) (A) (A) (A) (A) (A) (A)
                 (A) (A) (A) (A) (A) (A) (A) (A) (A) (A) (A) (A)
                 (A) (A) (A) (A) (A) (A) (A) (A) (A) (A) (A) (A)
                 (A) (A) (A) (A) (A) (A) (A) (A) (A) (A) (A) (A)
                 (A) (A) (A) (A) (A) (A) (A) (A) (A) (A) (A) (A)
                 (A) (A) (A) (A) (A) (A) (A) (A) (A) (A) (A) (A)
                 (A) (A) (A) (A) (A) (A) (A) (A) (A) (A) (A) (A)
                 (A) (A) (A) (A) (A) (A) (A) (A) (A) (A) (A) (A)
                 (A) (A) (A) (A) (A) (A) (A) (A) (A) (A) (A) (A)
                 (A) (A) (A) (A) (A) (A) (A) (A) (A) (A) (A) (A)
                 (A) (A) (A) (A) (A) (A) (A) (A) (A) (A) (A) (A)
                 (A) (A) (A) (A) (A) (A) (A) (A) (A) (A) (A) (A)
                 (A) (A) (A) (A) (A) (A) (A) (A) (A) (A) (A) (A)
                 (A) (A) (A) (A) (A) (A) (A) (A) (A) (A) (A) (A)
                 (A) (A) (A) (A) (A) (A) (A) (A) (A) (A) (A) (A)
                 (A) (A) (A) (A) (A) (A) (A) (A) (A) (A) (A) (A)
                 (A) (A) (A) (A) (A) (A) (A) (A) (A) (A) (A) (A)
                 (A) (A) (A) (A) (A) (A) (A) (A) (A) (A) (A) (A)
                 (A) (A) (A) (A) (A) (A) (A) (A) (A) (A) (A) (A)
                 (A) (A) (A) (A) (A) (A) (A) (A) (A) (A) (A) (A)
                 (A) (A) (A) (A) (A) (A) (A) (A) (A) (A) (A) (A)
                 (A) (A) (A) (A) (A) (A) (A) (A) (A) (A) (A) (A)
                 (A) (A) (A) (A) (A) (A) (A) (A) (A) (A) (A) (A)
                 (A) (A) (A) (A) (A) (A) (A) (A) (A) (A) (A) (A)
                 (A) (A) (A) (A) (A) (A) (A) (A) (A) (A) (A) (A)
                 (A) (A) (A) (A) (A) (A) (A) (A) (A) (A) (A) (A)
                 (A) (A) (A) (A) (A) (A) (A) (A) (A) (A) (A) (A)
                 (A) (A) (A) (A) (A) (A) (A) (A) (A) (A) (A) (A)
                 (A) (A) (A) (A) (A) (A) (A) (A) (A) (A) (A) (A)
                 (A) (A) (A) (A) (A) (A) (A) (A) (A) (A) (A) (A)
                 (A) (A) (A) (A) (A) (A) (A) (A) (A) (A) (A) (A)
                 (A) (A) (A) (A) (A) (A) (A) (A) (A) (A) (A) (A)
                 (A) (A) (A) (A) (A) (A) (A) (A) (A) (A) (A) (A)
                 (A) (A) (A) (A) (A) (A) (A) (A) (A) (A) (A) (A)
                 (A) (A) (A) (A) (A) (A) (A) (A) (A) (A) (A) (A)
                 (A) (A) (A) (A) (A) (A) (A) (A) (A) (A) (A) (A)
                 (A) (A) (A) (A) (A) (A) (A) (A) (A) (A) (A) (A)
                 (A) (A) (A) (A) (A) (A) (A) (A) (A) (A) (A) (A)
                 (A) (A) (A) (A) (A) (A) (A) (A) (A) (A) (A) (A)
                 (A) (A) (A) (A) (A) (A) (A) (A) (A) (A) (A) (A)
                 (A) (A) (A) (A) (A) (A) (A) (A) (A) (A) (A) (A)
                 (A) (A) (A) (A) (A) (A) (A) (A) (A) (A) (A) (A)
                 (A) (A) (A) (A) (A) (A) (A) (A) (A) (A) (A) (A)
                 (A) (A) (A) (A) (A) (A) (A) (A) (A) (A) (A) (A)
                 (A) (A) (A) (A) (A) (A) (A) (A) (A) (A) (A) (A)
                 (A) (A) (A) (A) (A) (A) (A) (A) (A) (A) (A) (A)
                 (A) (A) (A) (A) (A) (A) (A) (A) (A) (A) (A) (A)
                 (A) (A) (A) (A) (A) (A) (A) (A) (A) (A) (A) (A)
                 (A) (A) (A) (A) (A) (A) (A) (A) (A) (A) (A) (A)
                 (A) (A) (A) (A) (A) (A) (A) (A) (A) (A) (A) (A)
                 (A) (A) (A) (A) (A) (A) (A) (A) (A) (A) (A) (A)
                 (A) (A) (A) (A) (A) (A) (A) (A) (A) (A) (A) (A)
                 (A) (A) (A) (A) (A) (A) (A) (A) (A) (A) (A) (A)
                 (A) (A) (A) (A) (A) (A) (A) (A) (A) (A) (A) (A)
                 (A) (A) (A) (A) (A) (A) (A) (A) (A) (A) (A) (A)
                 (A) (A) (A) (A) (A) (A) (A) (A) (A) (A) (A) (A)
                 (A) (A) (A) (A) (A) (A) (A) (A) (A) (A) (A) (A)
                 (A) (A) (A) (A) (A) (A) (A) (A) (A) (A) (A) (A)
                 (A) (A) (A) (A) (A) (A) (A) (A) (A) (A) (A) (A)
                 (A) (A) (A) (A) (A) (A) (A) (A) (A) (A) (A) (A)
                 (A) (A) (A) (A) (A) (A) (A) (A) (A) (A) (A) (A)
                 (A) (A) (A) (A) (A) (A) (A) (A) (A) (A) (A) (A)
                 (A) (A) (A) (A) (A) (A) (A) (A) (A) (A) (A) (A)
                 (A) (A) (A) (A) (A) (A) (A) (A) (A) (A) (A) (A)
                 (A) (A) (A) (A) (A) (A) (A) (A) (A) (A) (A) (A)
                 (A) (A) (A) (A) (A) (A) (A) (A) (A) (A) (A) (A)
                 (A) (A) (A)
    40 initial guesses have been made.
 Convergence on wavefunction:    0.001000000000000
 Iteration     1 Dimension    40 NMult     0 NNew     40
 CISAX will form    16 AO SS matrices at one time.
 New state      4 was old state      5
 New state      5 was old state     12
 New state      6 was old state      9
 New state      7 was old state      4
 New state      9 was old state      6
 New state     10 was old state      7
 Iteration     2 Dimension    60 NMult    40 NNew     20
 New state      5 was old state      9
 New state      6 was old state      5
 New state      7 was old state      6
 New state      8 was old state      7
 New state      9 was old state      8
 Iteration     3 Dimension    80 NMult    60 NNew     20
 Iteration     4 Dimension   100 NMult    80 NNew     20
 Iteration     5 Dimension   118 NMult   100 NNew     18
 Iteration     6 Dimension   126 NMult   118 NNew      8
 ***********************************************************************
 Excited states from <AA,BB:AA,BB> singles matrix:
 ***********************************************************************

 Ground to excited state transition densities written to RWF  633
 Ground to excited state transition electric dipole moments (Au):
       state          X           Y           Z        Dip. S.      Osc.
         1        -4.3094     -0.0002     -0.0268     18.5717      0.8472
         2        -0.0001      0.6834      0.0000      0.4670      0.0245
         3         5.1014      0.0002     -0.2671     26.0959      1.8492
         4        -0.2184      0.0002      0.3073      0.1421      0.0105
         5         0.0003     -1.2044      0.0001      1.4506      0.1072
         6         0.0001     -0.3381      0.0002      0.1143      0.0088
         7        -0.1832      0.0000      0.3347      0.1456      0.0114
         8         0.0004      0.0567      0.0002      0.0032      0.0003
         9        -0.0008      0.3499      0.0002      0.1224      0.0099
        10         1.4702      0.0001     -0.1129      2.1742      0.1775
 Ground to excited state transition velocity dipole moments (Au):
       state          X           Y           Z        Dip. S.      Osc.
         1         0.2863      0.0000      0.0015      0.0819      0.7984
         2         0.0000     -0.0526      0.0000      0.0028      0.0234
         3        -0.5214      0.0000      0.0280      0.2726      1.7101
         4         0.0153      0.0000     -0.0333      0.0013      0.0081
         5         0.0000      0.1281      0.0000      0.0164      0.0986
         6         0.0000      0.0386      0.0000      0.0015      0.0086
         7         0.0185      0.0000     -0.0406      0.0020      0.0113
         8        -0.0001     -0.0082      0.0000      0.0001      0.0004
         9         0.0001     -0.0423      0.0000      0.0018      0.0099
        10        -0.1720      0.0000      0.0137      0.0298      0.1620
 Ground to excited state transition magnetic dipole moments (Au):
       state          X           Y           Z
         1         0.0380      0.0001      0.5023
         2         0.0000     -0.1394      0.0000
         3        -0.0132     -0.0004     -0.9183
         4        -0.0719      0.0000      0.2377
         5        -0.0002      0.1545     -0.0001
         6        -0.0001      0.3905      0.0005
         7        -0.0718     -0.0001      0.5905
         8         0.0000     -0.3255      0.0001
         9         0.0000     -0.4310      0.0001
        10         0.0031     -0.0004     -0.0061
 Ground to excited state transition velocity quadrupole moments (Au):
       state          XX          YY          ZZ          XY          XZ          YZ
         1         0.0005      0.0001     -0.0001      0.3673      0.0000     -0.2109
         2        -4.0580      0.1687     -0.0553      0.0000      0.0868      0.0000
         3        -0.0012     -0.0001      0.0001     -1.4637      0.0002      0.0468
         4        -0.0024      0.0000      0.0002      0.5984      0.0001      0.2556
         5        15.4150     -0.2562     -0.2687      0.0002     -0.2831      0.0000
         6         0.3898     -0.0671     -0.1731      0.0004     -0.3471      0.0001
         7        -0.0018      0.0001      0.0002      0.3479      0.0002     -0.0276
         8         3.3962     -0.0138     -0.1660     -0.0001      0.1917      0.0000
         9        -0.9623     -0.0355     -0.0932      0.0003      0.3488      0.0001
        10        -0.0009      0.0001     -0.0001     -0.7572      0.0003     -0.2493
 <0|del|b> * <b|rxdel|0> + <0|del|b> * <b|delr+rdel|0>
 Rotatory Strengths (R) in cgs (10**-40 erg-esu-cm/Gauss)
       state          XX          YY          ZZ    R(velocity)    E-M Angle
         1         6.8183   -254.7348    368.2324     40.1053       85.37
         2        53.4352      0.0000     12.4216     21.9522       90.00
         3      -222.2564     -7.3426    104.1260    -41.8243       92.25
         4       -89.1935     47.5020    -16.0773    -19.2562      172.13
         5       178.6733      0.0000    -52.5192     42.0514       90.00
         6        87.3640      0.0000      5.1405     30.8348       90.00
         7      -115.1053    -35.3006     -2.4648    -50.9569      162.49
         8        12.4401      0.0000      3.2203      5.2201       90.00
         9        96.4058      0.0000     10.1622     35.5227       90.00
        10       -30.1255    151.8368   -125.2966     -1.1951      121.59
 1/2[<0|r|b>*<b|rxdel|0> + (<0|rxdel|b>*<b|r|0>)*]
 Rotatory Strengths (R) in cgs (10**-40 erg-esu-cm/Gauss)
       state          XX          YY          ZZ     R(length)
         1       115.8267      0.0000      9.5174     41.7814
         2         0.0000     67.3537      0.0000     22.4512
         3        47.7296      0.0001   -173.4641    -41.9115
         4       -11.1085      0.0000    -51.6518    -20.9201
         5         0.0000    131.5672      0.0000     43.8558
         6         0.0000     93.3649     -0.0001     31.1216
         7        -9.3004      0.0000   -139.7541    -49.6849
         8         0.0000     13.0465      0.0000      4.3488
         9         0.0000    106.6417      0.0000     35.5472
        10        -3.2496      0.0000     -0.4878     -1.2458
  1/2[<0|del|b>*<b|r|0> + (<0|r|b>*<b|del|0>)*] (Au)
       state          X           Y           Z        Dip. S.   Osc.(frdel)
         1        -1.2336      0.0000      0.0000      1.2336      0.8224
         2         0.0000     -0.0359      0.0000      0.0359      0.0240
         3        -2.6599      0.0000     -0.0075      2.6674      1.7783
         4        -0.0033      0.0000     -0.0102      0.0136      0.0090
         5         0.0000     -0.1542      0.0000      0.1542      0.1028
         6         0.0000     -0.0130      0.0000      0.0130      0.0087
         7        -0.0034      0.0000     -0.0136      0.0170      0.0113
         8         0.0000     -0.0005      0.0000      0.0005      0.0003
         9         0.0000     -0.0148      0.0000      0.0148      0.0099
        10        -0.2528      0.0000     -0.0015      0.2544      0.1696

 Excitation energies and oscillator strengths:

 Excited State   1:      Singlet-A      1.8620 eV  665.88 nm  f=0.8472  <S**2>=0.000
     371 -> 372        0.69847
 This state for optimization and/or second-order correction.
 Total Energy, E(TD-HF/TD-KS) =  -6879.17194128
 Copying the excited state density for this state as the 1-particle RhoCI density.

 Excited State   2:      Singlet-A      2.1422 eV  578.77 nm  f=0.0245  <S**2>=0.000
     370 -> 372        0.70126

 Excited State   3:      Singlet-A      2.8923 eV  428.67 nm  f=1.8492  <S**2>=0.000
     369 -> 372        0.10383
     370 -> 374        0.25839
     371 -> 373        0.64222

 Excited State   4:      Singlet-A      3.0017 eV  413.05 nm  f=0.0105  <S**2>=0.000
     365 -> 372        0.21411
     367 -> 372        0.28221
     369 -> 372        0.58369
     371 -> 373       -0.12322

 Excited State   5:      Singlet-A      3.0177 eV  410.86 nm  f=0.1072  <S**2>=0.000
     370 -> 373        0.35124
     371 -> 374        0.61037

 Excited State   6:      Singlet-A      3.1350 eV  395.48 nm  f=0.0088  <S**2>=0.000
     364 -> 372        0.66562
     368 -> 372       -0.22217

 Excited State   7:      Singlet-A      3.1856 eV  389.21 nm  f=0.0114  <S**2>=0.000
     363 -> 372       -0.15203
     365 -> 372        0.31590
     367 -> 372        0.49341
     369 -> 372       -0.34692

 Excited State   8:      Singlet-A      3.2642 eV  379.83 nm  f=0.0003  <S**2>=0.000
     368 -> 372        0.33899
     370 -> 373        0.52508
     371 -> 374       -0.30113

 Excited State   9:      Singlet-A      3.2908 eV  376.76 nm  f=0.0099  <S**2>=0.000
     364 -> 372        0.20430
     368 -> 372        0.56957
     370 -> 373       -0.30396
     371 -> 374        0.17420

 Excited State  10:      Singlet-A      3.3329 eV  372.00 nm  f=0.1775  <S**2>=0.000
     369 -> 372       -0.10797
     370 -> 374        0.64578
     371 -> 373       -0.24505
 SavETr:  write IOETrn=   770 NScale= 10 NData=  16 NLR=1 NState=   10 LETran=     190.

 **********************************************************************

            Population analysis using the SCF density.

 **********************************************************************

 Orbital symmetries:
       Occupied  (A) (A) (A) (A) (A) (A) (A) (A) (A) (A) (A) (A)
                 (A) (A) (A) (A) (A) (A) (A) (A) (A) (A) (A) (A)
                 (A) (A) (A) (A) (A) (A) (A) (A) (A) (A) (A) (A)
                 (A) (A) (A) (A) (A) (A) (A) (A) (A) (A) (A) (A)
                 (A) (A) (A) (A) (A) (A) (A) (A) (A) (A) (A) (A)
                 (A) (A) (A) (A) (A) (A) (A) (A) (A) (A) (A) (A)
                 (A) (A) (A) (A) (A) (A) (A) (A) (A) (A) (A) (A)
                 (A) (A) (A) (A) (A) (A) (A) (A) (A) (A) (A) (A)
                 (A) (A) (A) (A) (A) (A) (A) (A) (A) (A) (A) (A)
                 (A) (A) (A) (A) (A) (A) (A) (A) (A) (A) (A) (A)
                 (A) (A) (A) (A) (A) (A) (A) (A) (A) (A) (A) (A)
                 (A) (A) (A) (A) (A) (A) (A) (A) (A) (A) (A) (A)
                 (A) (A) (A) (A) (A) (A) (A) (A) (A) (A) (A) (A)
                 (A) (A) (A) (A) (A) (A) (A) (A) (A) (A) (A) (A)
                 (A) (A) (A) (A) (A) (A) (A) (A) (A) (A) (A) (A)
                 (A) (A) (A) (A) (A) (A) (A) (A) (A) (A) (A) (A)
                 (A) (A) (A) (A) (A) (A) (A) (A) (A) (A) (A) (A)
                 (A) (A) (A) (A) (A) (A) (A) (A) (A) (A) (A) (A)
                 (A) (A) (A) (A) (A) (A) (A) (A) (A) (A) (A) (A)
                 (A) (A) (A) (A) (A) (A) (A) (A) (A) (A) (A) (A)
                 (A) (A) (A) (A) (A) (A) (A) (A) (A) (A) (A) (A)
                 (A) (A) (A) (A) (A) (A) (A) (A) (A) (A) (A) (A)
                 (A) (A) (A) (A) (A) (A) (A) (A) (A) (A) (A) (A)
                 (A) (A) (A) (A) (A) (A) (A) (A) (A) (A) (A) (A)
                 (A) (A) (A) (A) (A) (A) (A) (A) (A) (A) (A) (A)
                 (A) (A) (A) (A) (A) (A) (A) (A) (A) (A) (A) (A)
                 (A) (A) (A) (A) (A) (A) (A) (A) (A) (A) (A) (A)
                 (A) (A) (A) (A) (A) (A) (A) (A) (A) (A) (A) (A)
                 (A) (A) (A) (A) (A) (A) (A) (A) (A) (A) (A) (A)
                 (A) (A) (A) (A) (A) (A) (A) (A) (A) (A) (A) (A)
                 (A) (A) (A) (A) (A) (A) (A) (A) (A) (A) (A)
       Virtual   (A) (A) (A) (A) (A) (A) (A) (A) (A) (A) (A) (A)
                 (A) (A) (A) (A) (A) (A) (A) (A) (A) (A) (A) (A)
                 (A) (A) (A) (A) (A) (A) (A) (A) (A) (A) (A) (A)
                 (A) (A) (A) (A) (A) (A) (A) (A) (A) (A) (A) (A)
                 (A) (A) (A) (A) (A) (A) (A) (A) (A) (A) (A) (A)
                 (A) (A) (A) (A) (A) (A) (A) (A) (A) (A) (A) (A)
                 (A) (A) (A) (A) (A) (A) (A) (A) (A) (A) (A) (A)
                 (A) (A) (A) (A) (A) (A) (A) (A) (A) (A) (A) (A)
                 (A) (A) (A) (A) (A) (A) (A) (A) (A) (A) (A) (A)
                 (A) (A) (A) (A) (A) (A) (A) (A) (A) (A) (A) (A)
                 (A) (A) (A) (A) (A) (A) (A) (A) (A) (A) (A) (A)
                 (A) (A) (A) (A) (A) (A) (A) (A) (A) (A) (A) (A)
                 (A) (A) (A) (A) (A) (A) (A) (A) (A) (A) (A) (A)
                 (A) (A) (A) (A) (A) (A) (A) (A) (A) (A) (A) (A)
                 (A) (A) (A) (A) (A) (A) (A) (A) (A) (A) (A) (A)
                 (A) (A) (A) (A) (A) (A) (A) (A) (A) (A) (A) (A)
                 (A) (A) (A) (A) (A) (A) (A) (A) (A) (A) (A) (A)
                 (A) (A) (A) (A) (A) (A) (A) (A) (A) (A) (A) (A)
                 (A) (A) (A) (A) (A) (A) (A) (A) (A) (A) (A) (A)
                 (A) (A) (A) (A) (A) (A) (A) (A) (A) (A) (A) (A)
                 (A) (A) (A) (A) (A) (A) (A) (A) (A) (A) (A) (A)
                 (A) (A) (A) (A) (A) (A) (A) (A) (A) (A) (A) (A)
                 (A) (A) (A) (A) (A) (A) (A) (A) (A) (A) (A) (A)
                 (A) (A) (A) (A) (A) (A) (A) (A) (A) (A) (A) (A)
                 (A) (A) (A) (A) (A) (A) (A) (A) (A) (A) (A) (A)
                 (A) (A) (A) (A) (A) (A) (A) (A) (A) (A) (A) (A)
                 (A) (A) (A) (A) (A) (A) (A) (A) (A) (A) (A) (A)
                 (A) (A) (A) (A) (A) (A) (A) (A) (A) (A) (A) (A)
                 (A) (A) (A) (A) (A) (A) (A) (A) (A) (A) (A) (A)
                 (A) (A) (A) (A) (A) (A) (A) (A) (A) (A) (A) (A)
                 (A) (A) (A) (A) (A) (A) (A) (A) (A) (A) (A) (A)
                 (A) (A) (A) (A) (A) (A) (A) (A) (A) (A) (A) (A)
                 (A) (A) (A) (A) (A) (A) (A) (A) (A) (A) (A) (A)
                 (A) (A) (A) (A) (A) (A) (A) (A) (A) (A) (A) (A)
                 (A) (A) (A) (A) (A) (A) (A) (A) (A) (A) (A) (A)
                 (A) (A) (A) (A) (A) (A) (A) (A) (A) (A) (A) (A)
                 (A) (A) (A) (A) (A) (A) (A) (A) (A) (A) (A) (A)
                 (A) (A) (A) (A) (A) (A) (A) (A) (A) (A) (A) (A)
                 (A) (A) (A) (A) (A) (A) (A) (A) (A) (A) (A) (A)
                 (A) (A) (A) (A) (A) (A) (A) (A) (A) (A) (A) (A)
                 (A) (A) (A) (A) (A) (A) (A) (A) (A) (A) (A) (A)
                 (A) (A) (A) (A) (A) (A) (A) (A) (A) (A) (A) (A)
                 (A) (A) (A) (A) (A) (A) (A) (A) (A) (A) (A) (A)
                 (A) (A) (A) (A) (A) (A) (A) (A) (A) (A) (A) (A)
                 (A) (A) (A) (A) (A) (A) (A) (A) (A) (A) (A) (A)
                 (A) (A) (A) (A) (A) (A) (A) (A) (A) (A) (A) (A)
                 (A) (A) (A) (A) (A) (A) (A) (A) (A) (A) (A) (A)
                 (A) (A) (A) (A) (A) (A) (A) (A) (A) (A) (A) (A)
                 (A) (A) (A) (A) (A) (A) (A) (A) (A) (A) (A) (A)
                 (A) (A) (A) (A) (A) (A) (A) (A) (A) (A) (A) (A)
                 (A) (A) (A) (A) (A) (A) (A) (A) (A) (A) (A) (A)
                 (A) (A) (A) (A) (A) (A) (A) (A) (A) (A) (A) (A)
                 (A) (A) (A) (A) (A) (A) (A) (A) (A) (A) (A) (A)
                 (A) (A) (A) (A) (A) (A) (A) (A) (A) (A) (A) (A)
                 (A) (A) (A) (A) (A) (A) (A) (A) (A) (A) (A) (A)
                 (A) (A) (A) (A) (A) (A) (A) (A) (A) (A) (A) (A)
                 (A) (A) (A) (A) (A) (A) (A) (A) (A) (A) (A) (A)
                 (A) (A) (A) (A) (A) (A) (A) (A) (A) (A) (A) (A)
                 (A) (A) (A) (A) (A) (A) (A) (A) (A) (A) (A) (A)
                 (A) (A) (A) (A) (A) (A) (A) (A) (A) (A) (A) (A)
                 (A) (A) (A) (A) (A) (A) (A) (A) (A) (A) (A) (A)
                 (A) (A) (A) (A) (A) (A) (A) (A) (A) (A) (A) (A)
                 (A) (A) (A) (A) (A) (A) (A) (A) (A) (A) (A) (A)
                 (A) (A) (A) (A) (A) (A) (A) (A) (A) (A) (A) (A)
                 (A) (A) (A) (A) (A) (A) (A) (A) (A) (A) (A) (A)
                 (A) (A) (A) (A) (A) (A) (A) (A) (A) (A) (A) (A)
                 (A) (A) (A) (A) (A) (A) (A) (A) (A) (A) (A) (A)
                 (A) (A) (A) (A) (A) (A) (A) (A) (A) (A) (A) (A)
                 (A) (A) (A) (A) (A) (A) (A) (A) (A) (A) (A) (A)
                 (A) (A) (A) (A) (A) (A) (A) (A) (A) (A) (A) (A)
                 (A) (A) (A) (A) (A) (A) (A) (A) (A) (A) (A) (A)
                 (A) (A) (A) (A) (A) (A) (A) (A) (A) (A) (A) (A)
                 (A) (A) (A) (A) (A) (A) (A) (A) (A) (A) (A) (A)
                 (A) (A) (A) (A) (A) (A) (A) (A) (A) (A) (A) (A)
                 (A) (A) (A) (A) (A) (A) (A) (A) (A) (A) (A) (A)
                 (A) (A) (A) (A) (A) (A) (A) (A) (A) (A) (A) (A)
                 (A) (A) (A) (A) (A) (A) (A) (A) (A) (A) (A) (A)
                 (A) (A) (A) (A) (A) (A) (A) (A) (A) (A) (A) (A)
                 (A) (A) (A) (A) (A) (A) (A) (A) (A) (A) (A) (A)
                 (A) (A) (A) (A) (A) (A) (A) (A) (A) (A) (A) (A)
                 (A) (A) (A) (A) (A) (A) (A) (A) (A) (A) (A) (A)
                 (A) (A) (A) (A) (A) (A) (A) (A) (A) (A) (A) (A)
                 (A) (A) (A) (A) (A) (A) (A) (A) (A) (A) (A) (A)
                 (A) (A) (A) (A) (A) (A) (A) (A) (A) (A) (A) (A)
                 (A) (A) (A) (A) (A) (A) (A) (A) (A) (A) (A) (A)
                 (A) (A) (A) (A) (A) (A) (A) (A) (A) (A) (A) (A)
                 (A) (A) (A) (A) (A) (A) (A) (A) (A) (A) (A) (A)
                 (A) (A) (A) (A) (A) (A) (A) (A) (A) (A) (A) (A)
                 (A) (A) (A) (A) (A) (A) (A) (A) (A) (A) (A) (A)
                 (A) (A) (A) (A) (A) (A) (A) (A) (A) (A) (A) (A)
                 (A) (A) (A) (A) (A) (A) (A) (A) (A) (A) (A) (A)
                 (A) (A) (A) (A) (A) (A) (A) (A) (A) (A) (A) (A)
                 (A) (A) (A) (A) (A) (A) (A) (A) (A) (A) (A) (A)
                 (A) (A) (A) (A) (A) (A) (A) (A) (A) (A) (A) (A)
                 (A) (A) (A) (A) (A) (A) (A) (A) (A) (A) (A) (A)
                 (A) (A) (A) (A) (A) (A) (A) (A) (A) (A) (A) (A)
                 (A) (A) (A) (A) (A) (A) (A) (A) (A) (A) (A) (A)
                 (A) (A) (A) (A) (A) (A) (A) (A) (A) (A) (A) (A)
                 (A) (A) (A) (A) (A) (A) (A) (A) (A) (A) (A) (A)
                 (A) (A) (A) (A) (A) (A) (A) (A) (A) (A) (A) (A)
                 (A) (A) (A) (A) (A) (A) (A) (A) (A) (A) (A) (A)
                 (A) (A) (A) (A) (A) (A) (A) (A) (A) (A) (A) (A)
                 (A) (A) (A) (A) (A) (A) (A) (A) (A) (A) (A) (A)
                 (A) (A) (A) (A) (A) (A) (A) (A) (A) (A) (A) (A)
                 (A) (A) (A) (A) (A) (A) (A) (A) (A) (A) (A) (A)
                 (A) (A) (A) (A) (A) (A) (A) (A) (A) (A) (A) (A)
                 (A) (A) (A) (A) (A) (A) (A) (A) (A) (A) (A) (A)
                 (A) (A) (A) (A) (A) (A) (A) (A) (A) (A) (A) (A)
                 (A) (A) (A) (A) (A) (A) (A) (A) (A) (A) (A) (A)
                 (A) (A) (A) (A) (A) (A) (A) (A) (A) (A) (A) (A)
                 (A) (A) (A) (A) (A) (A) (A) (A) (A) (A) (A) (A)
                 (A) (A) (A) (A) (A) (A) (A) (A) (A) (A) (A) (A)
                 (A) (A) (A) (A) (A) (A) (A) (A) (A) (A) (A) (A)
                 (A) (A) (A) (A) (A) (A) (A) (A) (A) (A) (A) (A)
                 (A) (A) (A) (A) (A) (A) (A) (A) (A) (A) (A) (A)
                 (A) (A) (A) (A) (A) (A) (A) (A) (A) (A) (A) (A)
                 (A) (A) (A) (A) (A) (A) (A) (A) (A) (A) (A) (A)
                 (A) (A) (A) (A) (A) (A) (A) (A) (A) (A) (A) (A)
                 (A) (A) (A) (A) (A) (A) (A) (A) (A) (A) (A) (A)
                 (A) (A) (A) (A) (A) (A) (A) (A) (A) (A) (A) (A)
                 (A) (A) (A) (A) (A) (A) (A) (A) (A) (A) (A) (A)
                 (A) (A) (A) (A) (A) (A) (A) (A) (A) (A) (A) (A)
                 (A) (A) (A) (A) (A) (A) (A) (A) (A) (A) (A) (A)
                 (A) (A) (A) (A) (A) (A) (A) (A) (A) (A) (A) (A)
                 (A) (A) (A) (A) (A) (A) (A) (A) (A) (A) (A) (A)
                 (A) (A) (A) (A) (A) (A) (A) (A) (A) (A) (A) (A)
                 (A) (A) (A) (A) (A) (A) (A) (A) (A) (A) (A) (A)
                 (A) (A) (A) (A) (A) (A) (A) (A) (A) (A) (A) (A)
                 (A) (A) (A) (A) (A) (A) (A) (A) (A) (A) (A) (A)
                 (A) (A) (A) (A) (A) (A) (A) (A) (A) (A) (A) (A)
                 (A) (A) (A) (A) (A) (A) (A) (A) (A) (A) (A) (A)
                 (A) (A) (A) (A) (A) (A) (A) (A) (A) (A) (A) (A)
                 (A) (A) (A) (A) (A) (A) (A) (A) (A) (A) (A) (A)
                 (A) (A) (A) (A) (A) (A) (A) (A) (A) (A) (A) (A)
                 (A) (A) (A) (A) (A) (A) (A) (A) (A) (A) (A) (A)
                 (A) (A) (A) (A) (A) (A) (A) (A) (A) (A) (A) (A)
                 (A) (A) (A) (A) (A) (A) (A) (A) (A) (A) (A) (A)
                 (A) (A) (A) (A) (A) (A) (A) (A) (A) (A) (A) (A)
                 (A) (A) (A) (A) (A) (A) (A) (A) (A) (A) (A) (A)
                 (A) (A) (A) (A) (A) (A) (A) (A) (A) (A) (A) (A)
                 (A) (A) (A) (A) (A) (A) (A) (A) (A) (A) (A) (A)
                 (A) (A) (A) (A) (A) (A) (A) (A) (A) (A) (A) (A)
                 (A) (A) (A) (A) (A) (A) (A) (A) (A) (A) (A) (A)
                 (A) (A) (A) (A) (A) (A) (A) (A) (A) (A) (A) (A)
                 (A) (A) (A) (A) (A) (A) (A) (A) (A) (A) (A) (A)
                 (A) (A) (A) (A) (A) (A) (A) (A) (A) (A) (A) (A)
                 (A) (A) (A) (A) (A) (A) (A) (A) (A) (A) (A) (A)
                 (A) (A) (A) (A) (A) (A) (A) (A) (A) (A) (A) (A)
                 (A) (A) (A) (A) (A) (A) (A) (A) (A) (A) (A) (A)
                 (A) (A) (A)
 The electronic state is 1-A.
 Alpha  occ. eigenvalues --  -89.11266 -89.05337 -89.05337 -89.05247 -89.05247
 Alpha  occ. eigenvalues --  -89.04949 -89.04949 -19.24684 -19.24684 -19.24043
 Alpha  occ. eigenvalues --  -19.24043 -19.23993 -19.23992 -19.23848 -19.23847
 Alpha  occ. eigenvalues --  -19.23782 -19.23782 -19.23125 -19.23125 -19.21029
 Alpha  occ. eigenvalues --  -19.21029 -19.21010 -19.21010 -19.20950 -19.20950
 Alpha  occ. eigenvalues --  -19.20942 -19.20941 -14.41808 -14.41805 -10.28848
 Alpha  occ. eigenvalues --  -10.28848 -10.28838 -10.28838 -10.28829 -10.28829
 Alpha  occ. eigenvalues --  -10.28674 -10.28674 -10.28672 -10.28672 -10.28587
 Alpha  occ. eigenvalues --  -10.28587 -10.28466 -10.28466 -10.28322 -10.28322
 Alpha  occ. eigenvalues --  -10.28226 -10.28185 -10.27902 -10.27902 -10.27859
 Alpha  occ. eigenvalues --  -10.27859 -10.27771 -10.27771 -10.27462 -10.27461
 Alpha  occ. eigenvalues --  -10.27422 -10.27422 -10.27408 -10.27408 -10.27323
 Alpha  occ. eigenvalues --  -10.27323 -10.27311 -10.27311 -10.26848 -10.26848
 Alpha  occ. eigenvalues --  -10.26568 -10.26568 -10.26453 -10.26453 -10.26434
 Alpha  occ. eigenvalues --  -10.26434 -10.25998 -10.25998 -10.25992 -10.25991
 Alpha  occ. eigenvalues --  -10.25962 -10.25962 -10.25957 -10.25957 -10.25951
 Alpha  occ. eigenvalues --  -10.25951 -10.25741 -10.25740 -10.25403 -10.25403
 Alpha  occ. eigenvalues --  -10.24926 -10.24926 -10.24720 -10.24720 -10.24201
 Alpha  occ. eigenvalues --  -10.24150 -10.22473 -10.22473  -8.08683  -8.03034
 Alpha  occ. eigenvalues --   -8.03034  -8.02915  -8.02915  -8.02652  -8.02652
 Alpha  occ. eigenvalues --   -6.02333  -6.01748  -6.01567  -5.96611  -5.96611
 Alpha  occ. eigenvalues --   -5.96502  -5.96502  -5.96240  -5.96240  -5.96230
 Alpha  occ. eigenvalues --   -5.96230  -5.96121  -5.96121  -5.95859  -5.95859
 Alpha  occ. eigenvalues --   -5.95819  -5.95819  -5.95685  -5.95685  -5.95440
 Alpha  occ. eigenvalues --   -5.95440  -1.12959  -1.12959  -1.11880  -1.11880
 Alpha  occ. eigenvalues --   -1.11579  -1.11578  -1.09487  -1.09487  -1.09369
 Alpha  occ. eigenvalues --   -1.09369  -1.09129  -1.09124  -1.07689  -1.07689
 Alpha  occ. eigenvalues --   -1.07620  -1.07620  -1.07502  -1.07502  -1.07436
 Alpha  occ. eigenvalues --   -1.07436  -1.05928  -0.93137  -0.93026  -0.92628
 Alpha  occ. eigenvalues --   -0.92089  -0.91661  -0.90684  -0.90337  -0.88969
 Alpha  occ. eigenvalues --   -0.86097  -0.86086  -0.85966  -0.85906  -0.83033
 Alpha  occ. eigenvalues --   -0.81933  -0.80949  -0.80610  -0.80592  -0.79225
 Alpha  occ. eigenvalues --   -0.79104  -0.78187  -0.77177  -0.76820  -0.76336
 Alpha  occ. eigenvalues --   -0.76203  -0.76148  -0.75573  -0.74696  -0.74696
 Alpha  occ. eigenvalues --   -0.74626  -0.74615  -0.73716  -0.73708  -0.72852
 Alpha  occ. eigenvalues --   -0.72756  -0.72193  -0.72044  -0.71817  -0.71484
 Alpha  occ. eigenvalues --   -0.71458  -0.71367  -0.70846  -0.69794  -0.68735
 Alpha  occ. eigenvalues --   -0.68472  -0.68359  -0.68354  -0.67887  -0.66258
 Alpha  occ. eigenvalues --   -0.66187  -0.64819  -0.64788  -0.64731  -0.64693
 Alpha  occ. eigenvalues --   -0.64274  -0.64077  -0.62344  -0.61814  -0.61417
 Alpha  occ. eigenvalues --   -0.60947  -0.60901  -0.60524  -0.60067  -0.60041
 Alpha  occ. eigenvalues --   -0.59446  -0.58746  -0.58245  -0.57204  -0.57064
 Alpha  occ. eigenvalues --   -0.57052  -0.56090  -0.56044  -0.55784  -0.55782
 Alpha  occ. eigenvalues --   -0.54346  -0.54258  -0.53612  -0.53598  -0.53481
 Alpha  occ. eigenvalues --   -0.53408  -0.53372  -0.53337  -0.52948  -0.52779
 Alpha  occ. eigenvalues --   -0.52406  -0.52368  -0.52095  -0.52079  -0.51502
 Alpha  occ. eigenvalues --   -0.51499  -0.51214  -0.50968  -0.50571  -0.50434
 Alpha  occ. eigenvalues --   -0.50303  -0.49909  -0.49565  -0.49374  -0.49085
 Alpha  occ. eigenvalues --   -0.49083  -0.49020  -0.49010  -0.48795  -0.48735
 Alpha  occ. eigenvalues --   -0.48544  -0.48298  -0.48045  -0.47862  -0.47647
 Alpha  occ. eigenvalues --   -0.47580  -0.47576  -0.47253  -0.47228  -0.47224
 Alpha  occ. eigenvalues --   -0.47035  -0.47000  -0.46596  -0.46407  -0.46406
 Alpha  occ. eigenvalues --   -0.46308  -0.46222  -0.46219  -0.46162  -0.45670
 Alpha  occ. eigenvalues --   -0.45625  -0.45040  -0.44635  -0.44549  -0.44489
 Alpha  occ. eigenvalues --   -0.43974  -0.43864  -0.43742  -0.43739  -0.43527
 Alpha  occ. eigenvalues --   -0.43465  -0.43405  -0.43337  -0.43131  -0.43035
 Alpha  occ. eigenvalues --   -0.43019  -0.42663  -0.42388  -0.42230  -0.41917
 Alpha  occ. eigenvalues --   -0.41637  -0.41578  -0.41540  -0.41494  -0.41337
 Alpha  occ. eigenvalues --   -0.41246  -0.40685  -0.40684  -0.40529  -0.40511
 Alpha  occ. eigenvalues --   -0.40427  -0.40404  -0.40194  -0.40145  -0.39976
 Alpha  occ. eigenvalues --   -0.39962  -0.39919  -0.39664  -0.38813  -0.38796
 Alpha  occ. eigenvalues --   -0.38195  -0.38147  -0.37953  -0.37933  -0.37636
 Alpha  occ. eigenvalues --   -0.37542  -0.37340  -0.37233  -0.36836  -0.36717
 Alpha  occ. eigenvalues --   -0.36687  -0.36302  -0.36191  -0.36009  -0.35808
 Alpha  occ. eigenvalues --   -0.35306  -0.35292  -0.35183  -0.34781  -0.34762
 Alpha  occ. eigenvalues --   -0.34739  -0.34729  -0.34508  -0.34314  -0.34280
 Alpha  occ. eigenvalues --   -0.34032  -0.33842  -0.33828  -0.33734  -0.33418
 Alpha  occ. eigenvalues --   -0.33417  -0.33300  -0.33291  -0.32728  -0.32638
 Alpha  occ. eigenvalues --   -0.32525  -0.32453  -0.32240  -0.32134  -0.31919
 Alpha  occ. eigenvalues --   -0.30993  -0.30704  -0.30659  -0.30264  -0.28204
 Alpha  occ. eigenvalues --   -0.28156  -0.28127  -0.28127  -0.28062  -0.28051
 Alpha  occ. eigenvalues --   -0.27893  -0.27324  -0.27324  -0.27257  -0.27257
 Alpha  occ. eigenvalues --   -0.26426  -0.24486  -0.24026  -0.23419  -0.23217
 Alpha  occ. eigenvalues --   -0.23190  -0.23119  -0.22882  -0.22185  -0.18634
 Alpha  occ. eigenvalues --   -0.17914
 Alpha virt. eigenvalues --   -0.09104  -0.05311  -0.05101  -0.01757  -0.00652
 Alpha virt. eigenvalues --    0.00215   0.01082   0.01610   0.02734   0.02809
 Alpha virt. eigenvalues --    0.03419   0.03459   0.03700   0.03704   0.03751
 Alpha virt. eigenvalues --    0.04089   0.04229   0.04306   0.04562   0.04574
 Alpha virt. eigenvalues --    0.04884   0.04980   0.05669   0.05971   0.06048
 Alpha virt. eigenvalues --    0.06064   0.06633   0.06694   0.06818   0.07245
 Alpha virt. eigenvalues --    0.07323   0.07460   0.07601   0.07952   0.08088
 Alpha virt. eigenvalues --    0.08096   0.08127   0.08183   0.08245   0.08414
 Alpha virt. eigenvalues --    0.08417   0.08521   0.08624   0.08803   0.09081
 Alpha virt. eigenvalues --    0.09099   0.09441   0.09488   0.09592   0.09647
 Alpha virt. eigenvalues --    0.09867   0.09986   0.10138   0.10192   0.10657
 Alpha virt. eigenvalues --    0.10732   0.10838   0.10882   0.10991   0.11056
 Alpha virt. eigenvalues --    0.11201   0.11233   0.11314   0.11320   0.11526
 Alpha virt. eigenvalues --    0.11626   0.11815   0.11909   0.12010   0.12045
 Alpha virt. eigenvalues --    0.12069   0.12086   0.12301   0.12322   0.12429
 Alpha virt. eigenvalues --    0.12437   0.12743   0.12776   0.12868   0.12886
 Alpha virt. eigenvalues --    0.12954   0.12995   0.13127   0.13222   0.13263
 Alpha virt. eigenvalues --    0.13287   0.13371   0.13438   0.13528   0.13586
 Alpha virt. eigenvalues --    0.13690   0.13756   0.13972   0.13992   0.14608
 Alpha virt. eigenvalues --    0.14797   0.14819   0.15105   0.15360   0.15395
 Alpha virt. eigenvalues --    0.15412   0.15458   0.15714   0.16011   0.16211
 Alpha virt. eigenvalues --    0.16242   0.16309   0.16335   0.16478   0.16758
 Alpha virt. eigenvalues --    0.17059   0.17562   0.17834   0.17926   0.18003
 Alpha virt. eigenvalues --    0.18132   0.18318   0.18621   0.18799   0.18890
 Alpha virt. eigenvalues --    0.18959   0.19054   0.19369   0.19413   0.19581
 Alpha virt. eigenvalues --    0.19757   0.19850   0.19955   0.20204   0.20251
 Alpha virt. eigenvalues --    0.20312   0.20424   0.20505   0.20762   0.20935
 Alpha virt. eigenvalues --    0.20979   0.21197   0.21283   0.21493   0.21647
 Alpha virt. eigenvalues --    0.21959   0.21987   0.22298   0.22299   0.22370
 Alpha virt. eigenvalues --    0.22468   0.22611   0.22705   0.22762   0.22786
 Alpha virt. eigenvalues --    0.23009   0.23068   0.23266   0.23320   0.23733
 Alpha virt. eigenvalues --    0.24013   0.24095   0.24306   0.24876   0.25290
 Alpha virt. eigenvalues --    0.25489   0.25671   0.25727   0.26010   0.26363
 Alpha virt. eigenvalues --    0.26380   0.26438   0.26489   0.26661   0.26675
 Alpha virt. eigenvalues --    0.26969   0.27187   0.27592   0.28164   0.28281
 Alpha virt. eigenvalues --    0.28300   0.28725   0.29106   0.29186   0.29804
 Alpha virt. eigenvalues --    0.30605   0.30838   0.31052   0.31072   0.31400
 Alpha virt. eigenvalues --    0.31562   0.31663   0.32268   0.32285   0.32321
 Alpha virt. eigenvalues --    0.32357   0.32471   0.32580   0.32632   0.32655
 Alpha virt. eigenvalues --    0.32786   0.32786   0.32929   0.33003   0.33171
 Alpha virt. eigenvalues --    0.33287   0.33490   0.33589   0.33598   0.33797
 Alpha virt. eigenvalues --    0.33974   0.34317   0.34526   0.35026   0.35104
 Alpha virt. eigenvalues --    0.35174   0.35529   0.35536   0.35696   0.35702
 Alpha virt. eigenvalues --    0.35772   0.35881   0.35887   0.35930   0.35938
 Alpha virt. eigenvalues --    0.36045   0.36562   0.37177   0.37289   0.37684
 Alpha virt. eigenvalues --    0.37699   0.37957   0.38064   0.38366   0.38578
 Alpha virt. eigenvalues --    0.38821   0.39201   0.39279   0.39698   0.39765
 Alpha virt. eigenvalues --    0.39857   0.40169   0.40317   0.40400   0.40486
 Alpha virt. eigenvalues --    0.40531   0.40722   0.41083   0.41179   0.41385
 Alpha virt. eigenvalues --    0.41577   0.41816   0.41974   0.42105   0.42145
 Alpha virt. eigenvalues --    0.42210   0.42269   0.42397   0.42502   0.42653
 Alpha virt. eigenvalues --    0.42845   0.42986   0.43245   0.43392   0.43412
 Alpha virt. eigenvalues --    0.43644   0.44223   0.44790   0.44854   0.45019
 Alpha virt. eigenvalues --    0.45020   0.45133   0.45284   0.45383   0.45439
 Alpha virt. eigenvalues --    0.45441   0.45498   0.45697   0.45981   0.46296
 Alpha virt. eigenvalues --    0.46338   0.46419   0.46512   0.46625   0.46769
 Alpha virt. eigenvalues --    0.46868   0.46915   0.46956   0.47095   0.47130
 Alpha virt. eigenvalues --    0.47628   0.47807   0.47840   0.47925   0.48321
 Alpha virt. eigenvalues --    0.48349   0.48629   0.48740   0.49006   0.49040
 Alpha virt. eigenvalues --    0.49154   0.49212   0.49310   0.49346   0.49447
 Alpha virt. eigenvalues --    0.49468   0.49701   0.49754   0.49805   0.50235
 Alpha virt. eigenvalues --    0.50238   0.50776   0.51012   0.51392   0.51725
 Alpha virt. eigenvalues --    0.52140   0.52192   0.52425   0.52601   0.52634
 Alpha virt. eigenvalues --    0.52738   0.52852   0.53026   0.53073   0.53213
 Alpha virt. eigenvalues --    0.53383   0.53446   0.53622   0.53697   0.53800
 Alpha virt. eigenvalues --    0.53856   0.53966   0.54354   0.54417   0.54641
 Alpha virt. eigenvalues --    0.54714   0.54745   0.54915   0.54995   0.55239
 Alpha virt. eigenvalues --    0.55405   0.55519   0.55557   0.55695   0.55999
 Alpha virt. eigenvalues --    0.56143   0.56172   0.56297   0.56381   0.56498
 Alpha virt. eigenvalues --    0.56600   0.56634   0.56707   0.56826   0.56859
 Alpha virt. eigenvalues --    0.57246   0.57258   0.57473   0.57588   0.57799
 Alpha virt. eigenvalues --    0.57891   0.57959   0.58038   0.58176   0.58273
 Alpha virt. eigenvalues --    0.58353   0.58412   0.58503   0.58543   0.58679
 Alpha virt. eigenvalues --    0.58779   0.58892   0.58997   0.59103   0.59129
 Alpha virt. eigenvalues --    0.59266   0.59269   0.59363   0.59559   0.59694
 Alpha virt. eigenvalues --    0.59705   0.59739   0.59789   0.59823   0.59978
 Alpha virt. eigenvalues --    0.60163   0.60299   0.60401   0.60482   0.60734
 Alpha virt. eigenvalues --    0.60774   0.60866   0.60898   0.60920   0.60924
 Alpha virt. eigenvalues --    0.60954   0.61039   0.61093   0.61154   0.61283
 Alpha virt. eigenvalues --    0.61463   0.61590   0.61681   0.61886   0.62051
 Alpha virt. eigenvalues --    0.62421   0.62461   0.62717   0.62768   0.62889
 Alpha virt. eigenvalues --    0.62890   0.63089   0.63157   0.63437   0.63447
 Alpha virt. eigenvalues --    0.63533   0.63679   0.63827   0.63854   0.64321
 Alpha virt. eigenvalues --    0.64357   0.64416   0.64716   0.64756   0.65006
 Alpha virt. eigenvalues --    0.65097   0.65256   0.65343   0.65425   0.65635
 Alpha virt. eigenvalues --    0.65731   0.65824   0.65934   0.66159   0.66334
 Alpha virt. eigenvalues --    0.66458   0.66573   0.66617   0.66790   0.66795
 Alpha virt. eigenvalues --    0.67247   0.67301   0.67572   0.67592   0.67617
 Alpha virt. eigenvalues --    0.68012   0.68265   0.68875   0.68957   0.69018
 Alpha virt. eigenvalues --    0.69184   0.69554   0.69593   0.70016   0.70081
 Alpha virt. eigenvalues --    0.70161   0.70305   0.70532   0.70572   0.70881
 Alpha virt. eigenvalues --    0.71003   0.71837   0.72001   0.72430   0.72722
 Alpha virt. eigenvalues --    0.73912   0.73960   0.74146   0.74284   0.74433
 Alpha virt. eigenvalues --    0.74513   0.74732   0.74983   0.75051   0.75201
 Alpha virt. eigenvalues --    0.75482   0.75501   0.76028   0.76152   0.76268
 Alpha virt. eigenvalues --    0.76384   0.76984   0.77127   0.77522   0.77659
 Alpha virt. eigenvalues --    0.77739   0.78192   0.78454   0.78518   0.78791
 Alpha virt. eigenvalues --    0.78850   0.79165   0.79175   0.79532   0.79909
 Alpha virt. eigenvalues --    0.79990   0.80116   0.81020   0.81344   0.81800
 Alpha virt. eigenvalues --    0.81964   0.82138   0.82402   0.82437   0.83124
 Alpha virt. eigenvalues --    0.83508   0.83738   0.83785   0.84152   0.84213
 Alpha virt. eigenvalues --    0.84483   0.84511   0.84817   0.84948   0.85580
 Alpha virt. eigenvalues --    0.85851   0.86045   0.86482   0.86794   0.87054
 Alpha virt. eigenvalues --    0.87199   0.87705   0.87705   0.87874   0.88171
 Alpha virt. eigenvalues --    0.88360   0.88506   0.88594   0.89026   0.89300
 Alpha virt. eigenvalues --    0.89380   0.89609   0.89700   0.89946   0.90254
 Alpha virt. eigenvalues --    0.90973   0.90974   0.91041   0.91506   0.91698
 Alpha virt. eigenvalues --    0.91911   0.92072   0.92354   0.92436   0.92633
 Alpha virt. eigenvalues --    0.92999   0.93340   0.93835   0.94064   0.94310
 Alpha virt. eigenvalues --    0.94327   0.94579   0.94767   0.94904   0.95021
 Alpha virt. eigenvalues --    0.95046   0.95475   0.95720   0.95767   0.95785
 Alpha virt. eigenvalues --    0.95891   0.96002   0.96200   0.96416   0.96790
 Alpha virt. eigenvalues --    0.96792   0.96986   0.97363   0.97581   0.97639
 Alpha virt. eigenvalues --    0.97999   0.98145   0.98507   0.98549   0.98640
 Alpha virt. eigenvalues --    0.98732   0.98871   0.99307   0.99455   0.99525
 Alpha virt. eigenvalues --    0.99590   1.00269   1.00346   1.00485   1.00517
 Alpha virt. eigenvalues --    1.01184   1.01357   1.01385   1.01842   1.02179
 Alpha virt. eigenvalues --    1.02225   1.02728   1.02758   1.02816   1.03007
 Alpha virt. eigenvalues --    1.03494   1.03520   1.04251   1.04456   1.04637
 Alpha virt. eigenvalues --    1.04811   1.04938   1.05342   1.05421   1.05421
 Alpha virt. eigenvalues --    1.06374   1.06671   1.06834   1.06848   1.07270
 Alpha virt. eigenvalues --    1.07454   1.07557   1.07817   1.08019   1.08488
 Alpha virt. eigenvalues --    1.09052   1.09274   1.09473   1.10160   1.10695
 Alpha virt. eigenvalues --    1.11015   1.11207   1.11211   1.11363   1.11473
 Alpha virt. eigenvalues --    1.11487   1.11907   1.11948   1.12164   1.12571
 Alpha virt. eigenvalues --    1.12698   1.13011   1.13342   1.13653   1.13855
 Alpha virt. eigenvalues --    1.13986   1.14323   1.14416   1.14830   1.15513
 Alpha virt. eigenvalues --    1.15850   1.16227   1.16705   1.16880   1.16896
 Alpha virt. eigenvalues --    1.17547   1.18069   1.18298   1.18430   1.18859
 Alpha virt. eigenvalues --    1.19158   1.19540   1.19631   1.19793   1.20056
 Alpha virt. eigenvalues --    1.20448   1.20483   1.20798   1.21131   1.21292
 Alpha virt. eigenvalues --    1.21531   1.22208   1.22409   1.22607   1.22699
 Alpha virt. eigenvalues --    1.22853   1.23040   1.23511   1.24250   1.24370
 Alpha virt. eigenvalues --    1.24659   1.24749   1.24778   1.25145   1.25666
 Alpha virt. eigenvalues --    1.26300   1.26610   1.26767   1.26961   1.27505
 Alpha virt. eigenvalues --    1.27597   1.28029   1.28545   1.28579   1.28996
 Alpha virt. eigenvalues --    1.29367   1.29429   1.29619   1.30145   1.30792
 Alpha virt. eigenvalues --    1.30924   1.31083   1.31204   1.31642   1.32057
 Alpha virt. eigenvalues --    1.32347   1.32842   1.33189   1.33276   1.33892
 Alpha virt. eigenvalues --    1.34359   1.34859   1.35449   1.35566   1.35820
 Alpha virt. eigenvalues --    1.36182   1.36460   1.36569   1.36712   1.37264
 Alpha virt. eigenvalues --    1.37388   1.37498   1.37740   1.37790   1.37980
 Alpha virt. eigenvalues --    1.39082   1.39353   1.39574   1.39668   1.40194
 Alpha virt. eigenvalues --    1.40717   1.41265   1.41946   1.42222   1.42366
[...]
 Alpha virt. eigenvalues --    3.20176   3.20191   3.20275   3.20768   3.20781
 Alpha virt. eigenvalues --    3.21217   3.21227   3.21324   3.21346   3.21731
 Alpha virt. eigenvalues --    3.21749   3.21997   3.22002   3.22801   3.22864
 Alpha virt. eigenvalues --    3.24337   3.24381   3.24434   3.24789   3.25260
 Alpha virt. eigenvalues --    3.25314   3.25421   3.25425   3.26014   3.26104
 Alpha virt. eigenvalues --    3.26191   3.26228   3.26270   3.26552   3.27301
 Alpha virt. eigenvalues --    3.27312   3.27420   3.27470   3.28039   3.28040
 Alpha virt. eigenvalues --    3.28332   3.29010   3.29176   3.29242   3.29397
 Alpha virt. eigenvalues --    3.29733   3.30509   3.30708   3.30733   3.32191
 Alpha virt. eigenvalues --    3.32263   3.32810   3.32899   3.34749   3.34822
 Alpha virt. eigenvalues --    3.35136   3.35266   3.35328   3.36439   3.36454
 Alpha virt. eigenvalues --    3.37876   3.37910   3.38358   3.38386   3.38852
 Alpha virt. eigenvalues --    3.39078   3.40295   3.40545   3.40832   3.42247
 Alpha virt. eigenvalues --    3.42683   3.44449   3.44627   3.45977   3.45979
 Alpha virt. eigenvalues --    3.47176   3.47267   3.47959   3.48730   3.49048
 Alpha virt. eigenvalues --    3.49231   3.49773   3.50904   3.51554   3.52069
 Alpha virt. eigenvalues --    3.52443   3.63108   3.63320   3.63324   3.63445
 Alpha virt. eigenvalues --    3.63534   3.65654   3.74316   3.74347   3.76994
 Alpha virt. eigenvalues --    3.77553   3.78138   3.79147   3.79176   3.79249
 Alpha virt. eigenvalues --    3.79255   3.79273   3.79280   3.79380   3.79416
 Alpha virt. eigenvalues --    3.79580   3.79581   3.79593   3.79595   3.79765
 Alpha virt. eigenvalues --    3.79767   3.79792   3.79805   3.79881   3.79884
 Alpha virt. eigenvalues --    3.80010   3.80070   3.80099   3.80130   3.80222
 Alpha virt. eigenvalues --    3.80247   3.80618   3.80650   3.81252   3.81253
 Alpha virt. eigenvalues --    3.82741   3.83133   3.83162   3.83362   3.84908
 Alpha virt. eigenvalues --    3.84909   3.85864   3.86219   3.87126   3.87147
 Alpha virt. eigenvalues --    3.87232   3.87257   3.87960   3.88281   3.90882
 Alpha virt. eigenvalues --    3.90885   3.93470   3.99023   4.00249   4.00253
 Alpha virt. eigenvalues --    4.00369   4.00728   4.00729   4.01033   4.03092
 Alpha virt. eigenvalues --    4.04183   4.04235   4.05574   4.05700   4.06107
 Alpha virt. eigenvalues --    4.06280   4.06400   4.06428   4.06532   4.06875
 Alpha virt. eigenvalues --    4.07112   4.07222   4.07766   4.07772   4.08511
 Alpha virt. eigenvalues --    4.08771   4.08824   4.08885   4.10095   4.10145
 Alpha virt. eigenvalues --    4.10943   4.11546   4.12279   4.12284   4.12363
 Alpha virt. eigenvalues --    4.13196   4.14467   4.14623   4.16905   4.17158
 Alpha virt. eigenvalues --    4.17397   4.21637   4.22326   4.22528   4.22719
 Alpha virt. eigenvalues --    4.24899   4.24915   4.29364   4.29377   4.29396
 Alpha virt. eigenvalues --    4.29496   4.31878   4.31879   4.32342   4.32392
 Alpha virt. eigenvalues --    4.34758   4.35202   4.35214   4.35524   4.35632
 Alpha virt. eigenvalues --    4.36696   4.38534   4.47884   4.54212   4.61491
 Alpha virt. eigenvalues --    4.63717   4.76351   4.76371   4.80411   4.86339
 Alpha virt. eigenvalues --    4.98022   4.98026   4.98522   4.98523   5.01823
 Alpha virt. eigenvalues --    5.01833   5.02108   5.02150   5.03778   5.03794
 Alpha virt. eigenvalues --    5.04002   5.04061   5.09906   5.09931   5.10770
 Alpha virt. eigenvalues --    5.10823   5.11023   5.11037   5.12290   5.13326
 Alpha virt. eigenvalues --    5.28350   5.28482   5.29840   5.29855   5.30105
 Alpha virt. eigenvalues --    5.30136   5.33991   5.33995   5.34144   5.34159
 Alpha virt. eigenvalues --    5.36254   5.36256   5.36446   5.36503   5.40667
 Alpha virt. eigenvalues --    5.40740   5.42025   5.42278   5.43929   5.44188
 Alpha virt. eigenvalues --    5.72738   5.72874   5.73946   5.73947   5.74059
 Alpha virt. eigenvalues --    5.74063   5.75072   5.75101   5.75220   5.75230
 Alpha virt. eigenvalues --    5.78251   5.78673   5.81165   5.81416   5.82127
 Alpha virt. eigenvalues --    5.82136   5.90650   5.90689   5.91736   5.91842
 Alpha virt. eigenvalues --    7.85440   7.85738   7.85738   7.86930   7.87169
 Alpha virt. eigenvalues --    7.87315   7.87967  17.25226  17.30289  17.30358
 Alpha virt. eigenvalues --   17.32080  17.32263  17.33425  17.33610  17.42093
 Alpha virt. eigenvalues --   17.43620  17.57402  17.57443  17.58046  17.58157
 Alpha virt. eigenvalues --   17.60166  17.60264  17.60918  17.61203  17.67227
 Alpha virt. eigenvalues --   17.67230  17.68543  17.68756  23.46933  23.49037
 Alpha virt. eigenvalues --   23.57427  23.60818  23.68300  23.72665  23.76386
 Alpha virt. eigenvalues --   23.81947  23.81956  23.82059  23.82084  23.82587
 Alpha virt. eigenvalues --   23.83288  23.89100  23.89131  23.89471  23.89478
 Alpha virt. eigenvalues --   23.90226  23.90228  23.90422  23.90433  23.91196
 Alpha virt. eigenvalues --   23.91196  23.92124  23.92129  23.92300  23.92320
 Alpha virt. eigenvalues --   23.93766  23.93772  23.94278  23.94339  23.94816
 Alpha virt. eigenvalues --   23.94845  23.96040  23.96041  23.96115  23.96118
 Alpha virt. eigenvalues --   23.96434  23.96549  23.96562  23.96571  23.96582
 Alpha virt. eigenvalues --   23.97830  23.98188  23.98214  23.98414  23.98629
 Alpha virt. eigenvalues --   24.01900  24.01901  24.05685  24.13173  24.13669
 Alpha virt. eigenvalues --   24.13677  24.14114  24.15597  24.15723  24.16137
 Alpha virt. eigenvalues --   24.17756  24.18065  24.18105  24.19248  24.19525
 Alpha virt. eigenvalues --   24.19541  24.24185  35.58512  35.71518  50.01615
 Alpha virt. eigenvalues --   50.01615  50.01693  50.01698  50.02821  50.02831
 Alpha virt. eigenvalues --   50.03696  50.03696  50.03739  50.03749  50.04170
 Alpha virt. eigenvalues --   50.04172  50.05650  50.05717  50.06674  50.06718
 Alpha virt. eigenvalues --   50.08095  50.08102  50.08678  50.08689 189.12368
 Alpha virt. eigenvalues --  189.13718 189.13800 189.15005 189.15223 189.15481
 Alpha virt. eigenvalues --  189.16235
          Condensed to atoms (all electrons):
 Mulliken charges:
               1
     1  C   -0.263725
     2  C    0.215846
     3  C    0.253194
     4  C   -0.368130
     5  S    0.304506
     6  O   -0.370077
     7  O   -0.368490
     8  C   -0.080301
     9  H    0.157958
    10  H    0.153911
    11  C   -0.088946
    12  H    0.152922
    13  H    0.156127
    14  C   -0.274875
    15  C    0.233991
    16  S    0.356861
    17  C    0.244301
    18  O   -0.377287
    19  C   -0.287283
    20  O   -0.377707
    21  C   -0.014485
    22  C   -0.013588
    23  H    0.154448
    24  H    0.166570
    25  C   -0.379559
    26  H    0.155492
    27  H    0.166852
    28  C    0.020779
    29  C    0.020535
    30  H    0.132466
    31  H    0.132547
    32  O   -0.363840
    33  H    0.132610
    34  H    0.132542
    35  O   -0.363717
    36  C   -0.161518
    37  C   -0.161386
    38  H    0.134687
    39  H    0.114985
    40  H    0.114535
    41  H    0.135198
    42  H    0.115100
    43  H    0.114373
    44  C   -0.242282
    45  C    0.216216
    46  S    0.336669
    47  C    0.290482
    48  O   -0.378322
    49  C   -0.354378
    50  O   -0.356430
    51  C   -0.012764
    52  C   -0.016061
    53  H    0.153324
    54  H    0.164892
    55  C   -0.375959
    56  H    0.149449
    57  H    0.158940
    58  C    0.020446
    59  C    0.019170
    60  H    0.130681
    61  H    0.131682
    62  O   -0.362791
    63  H    0.131925
    64  H    0.132032
    65  O   -0.363955
    66  C   -0.161486
    67  C   -0.161363
    68  H    0.134760
    69  H    0.113998
    70  H    0.114120
    71  H    0.134255
    72  H    0.114603
    73  H    0.114022
    74  C    0.059306
    75  C    0.150014
    76  C   -0.110344
    77  C    0.150036
    78  N   -0.509311
    79  H    0.131763
    80  C   -0.110355
    81  N   -0.509313
    82  C    0.059316
    83  S    0.567919
    84  H    0.131764
    85  C   -0.354361
    86  C    0.290431
    87  S    0.336664
    88  C    0.216267
    89  O   -0.356431
    90  C   -0.242293
    91  O   -0.378319
    92  C   -0.016055
    93  C   -0.012761
    94  H    0.149451
    95  H    0.158931
    96  C   -0.375968
    97  H    0.153321
    98  H    0.164895
    99  C    0.019165
   100  C    0.020447
   101  H    0.131926
   102  H    0.132034
   103  O   -0.363958
   104  H    0.130681
   105  H    0.131680
   106  O   -0.362782
   107  C   -0.161360
   108  C   -0.161487
   109  H    0.134255
   110  H    0.114603
   111  H    0.114021
   112  H    0.134760
   113  H    0.113998
   114  H    0.114118
   115  C   -0.287298
   116  C    0.244370
   117  S    0.356851
   118  C    0.233926
   119  O   -0.377709
   120  C   -0.274854
   121  O   -0.377285
   122  C   -0.013577
   123  C   -0.014491
   124  H    0.155488
   125  H    0.166855
   126  C   -0.379565
   127  H    0.154453
   128  H    0.166567
   129  C    0.020545
   130  C    0.020766
   131  H    0.132609
   132  H    0.132537
   133  O   -0.363714
   134  H    0.132466
   135  H    0.132551
   136  O   -0.363839
   137  C   -0.161388
   138  C   -0.161516
   139  H    0.135199
   140  H    0.115100
   141  H    0.114373
   142  H    0.134687
   143  H    0.114984
   144  H    0.114535
   145  C   -0.263726
   146  C    0.215844
   147  S    0.304503
   148  C    0.253200
   149  O   -0.370073
   150  C   -0.368126
   151  O   -0.368493
   152  C   -0.080315
   153  C   -0.088931
   154  H    0.157960
   155  H    0.153911
   156  H    0.152922
   157  H    0.156126
   158  C   -0.282989
   159  H    0.152748
   160  H    0.142832
   161  H    0.147713
   162  C   -0.282991
   163  H    0.152744
   164  H    0.142831
   165  H    0.147719
 Sum of Mulliken charges =   0.00000
 Mulliken charges with hydrogens summed into heavy atoms:
               1
     1  C   -0.263725
     2  C    0.215846
     3  C    0.253194
     4  C   -0.368130
     5  S    0.304506
     6  O   -0.370077
     7  O   -0.368490
     8  C    0.231568
    11  C    0.220104
    14  C   -0.274875
    15  C    0.233991
    16  S    0.356861
    17  C    0.244301
    18  O   -0.377287
    19  C   -0.287283
    20  O   -0.377707
    21  C    0.306533
    22  C    0.308756
    25  C   -0.379559
    28  C    0.285792
    29  C    0.285687
    32  O   -0.363840
    35  O   -0.363717
    36  C    0.202689
    37  C    0.203284
    44  C   -0.242282
    45  C    0.216216
    46  S    0.336669
    47  C    0.290482
    48  O   -0.378322
    49  C   -0.354378
    50  O   -0.356430
    51  C    0.305452
    52  C    0.292328
    55  C   -0.375959
    58  C    0.282808
    59  C    0.283127
    62  O   -0.362791
    65  O   -0.363955
    66  C    0.201392
    67  C    0.201517
    74  C    0.059306
    75  C    0.150014
    76  C    0.021418
    77  C    0.150036
    78  N   -0.509311
    80  C    0.021409
    81  N   -0.509313
    82  C    0.059316
    83  S    0.567919
    85  C   -0.354361
    86  C    0.290431
    87  S    0.336664
    88  C    0.216267
    89  O   -0.356431
    90  C   -0.242293
    91  O   -0.378319
    92  C    0.292327
    93  C    0.305456
    96  C   -0.375968
    99  C    0.283125
   100  C    0.282807
   103  O   -0.363958
   106  O   -0.362782
   107  C    0.201519
   108  C    0.201389
   115  C   -0.287298
   116  C    0.244370
   117  S    0.356851
   118  C    0.233926
   119  O   -0.377709
   120  C   -0.274854
   121  O   -0.377285
   122  C    0.308767
   123  C    0.306529
   126  C   -0.379565
   129  C    0.285691
   130  C    0.285784
   133  O   -0.363714
   136  O   -0.363839
   137  C    0.203283
   138  C    0.202690
   145  C   -0.263726
   146  C    0.215844
   147  S    0.304503
   148  C    0.253200
   149  O   -0.370073
   150  C   -0.368126
   151  O   -0.368493
   152  C    0.231557
   153  C    0.220117
   158  C    0.160304
   162  C    0.160303
 Electronic spatial extent (au):  <R**2>=         199573.1185
 Charge=              0.0000 electrons
 Dipole moment (field-independent basis, Debye):
    X=              0.0009    Y=             -0.9760    Z=             -0.0035  Tot=              0.9760
 Quadrupole moment (field-independent basis, Debye-Ang):
   XX=           -496.5062   YY=           -458.8899   ZZ=           -454.2612
   XY=             -0.0321   XZ=             42.1503   YZ=             -0.0002
 Traceless Quadrupole moment (field-independent basis, Debye-Ang):
   XX=            -26.6204   YY=             10.9959   ZZ=             15.6245
   XY=             -0.0321   XZ=             42.1503   YZ=             -0.0002
 Octapole moment (field-independent basis, Debye-Ang**2):
  XXX=              0.1804  YYY=             56.4557  ZZZ=             -0.0563  XYY=              0.3653
  XXY=           -455.0211  XXZ=             -0.2483  XZZ=             -0.3893  YZZ=            -48.2428
  YYZ=              0.0123  XYZ=           -741.6541
 Hexadecapole moment (field-independent basis, Debye-Ang**3):
 XXXX=        -189151.4362 YYYY=         -22622.9030 ZZZZ=         -19247.3400 XXXY=             -3.3220
 XXXZ=           6297.5217 YYYX=              0.0556 YYYZ=             -0.3420 ZZZX=            344.0056
 ZZZY=              0.1783 XXYY=         -33055.4283 XXZZ=         -33245.0576 YYZZ=          -6685.5463
 XXYZ=              0.2288 YYXZ=           -282.8381 ZZXY=             -0.1653
 N-N= 1.957552519234D+04 E-N=-5.536400948384D+04  KE= 6.862002452647D+03
 1\1\GINC-NODE15\SP\RPBEh1PBE TD-FC\6-311G(d,p)\C64H72N2O20S7\DWHEELER\
 11-Feb-2015\0\\# td=(nstates=10) pbeh1pbe/6-311g(d,p) scrf=(cpcm,solve
 nt=dichloromethane) geom=connectivity\\Rey2015_ABB_a_BBA_pbeh1pbe_6311
 g_ssTD_DCM_0\\0,1\C,0,-10.51332,0.920488,0.147816\C,0,-11.309405,0.166
 909,-0.681544\C,0,-12.698139,0.457595,-0.570022\C,0,-12.982106,1.43377
 1,0.338391\S,0,-11.520872,2.015467,1.071801\O,0,-10.826829,-0.782337,-
 1.521092\O,0,-13.636461,-0.181805,-1.319561\C,0,-11.783491,-1.178091,-
 2.508519\H,0,-11.845605,-0.40495,-3.282435\H,0,-11.406388,-2.10041,-2.
 949044\C,0,-13.137409,-1.397725,-1.877598\H,0,-13.862082,-1.715205,-2.
 626972\H,0,-13.070245,-2.161627,-1.094099\C,0,-9.085945,0.869721,0.287
 549\C,0,-8.300473,1.617015,1.137616\S,0,-8.100582,-0.231989,-0.64172\C
 ,0,-6.917285,1.318741,1.035696\O,0,-8.836785,2.557425,1.952539\C,0,-6.
 632193,0.33048,0.118505\O,0,-5.940026,1.894732,1.774628\C,0,-8.232283,
 2.693098,3.239367\C,0,-6.093082,3.289189,2.047592\H,0,-9.005164,3.1181
 04,3.883243\H,0,-7.966245,1.703165,3.620383\C,0,-6.991173,3.591824,3.2
 52293\H,0,-5.084029,3.663725,2.231492\H,0,-6.495156,3.787773,1.161377\
 C,0,-7.351866,5.078062,3.209041\C,0,-6.265392,3.373842,4.581423\H,0,-7
 .921751,5.339383,4.11521\H,0,-6.42752,5.679784,3.220892\O,0,-8.103036,
 5.373673,2.060756\H,0,-5.426218,4.083845,4.657583\H,0,-6.953489,3.5930
 01,5.415228\O,0,-5.795207,2.054983,4.677826\C,0,-8.430102,6.740997,1.9
 81932\C,0,-5.137603,1.816655,5.900056\H,0,-9.004389,6.886746,1.066806\
 H,0,-9.038396,7.057282,2.840357\H,0,-7.528275,7.367596,1.94328\H,0,-4.
 805845,0.778214,5.894827\H,0,-4.263232,2.471126,6.018223\H,0,-5.809947
 ,1.97438,6.754643\C,0,-5.339362,-0.1869,-0.224693\C,0,-5.04368,-1.1414
 46,-1.175248\S,0,-3.874795,0.350561,0.554036\C,0,-3.655013,-1.436417,-
 1.282295\O,0,-6.023675,-1.733722,-1.899188\C,0,-2.886118,-0.712623,-0.
 403914\O,0,-3.120674,-2.258526,-2.210924\C,0,-5.725089,-2.011815,-3.26
 8651\C,0,-3.837252,-3.46778,-2.455102\H,0,-6.691929,-2.055164,-3.77470
 7\H,0,-5.148088,-1.183103,-3.688047\C,0,-4.961299,-3.322095,-3.487797\
 H,0,-3.094848,-4.185154,-2.811211\H,0,-4.254246,-3.839453,-1.515396\C,
 0,-5.869284,-4.548314,-3.380063\C,0,-4.428662,-3.319352,-4.922171\H,0,
 -6.626451,-4.51162,-4.179884\H,0,-5.271088,-5.461193,-3.540036\O,0,-6.
 492789,-4.596332,-2.12349\H,0,-3.963357,-4.2948,-5.137536\H,0,-5.26895
 6,-3.196636,-5.626075\O,0,-3.495192,-2.28669,-5.101783\C,0,-7.319479,-
 5.727696,-1.98726\C,0,-3.001211,-2.244815,-6.419491\H,0,-7.759325,-5.6
 92309,-0.990354\H,0,-8.125265,-5.727175,-2.734176\H,0,-6.74608,-6.6590
 64,-2.093583\H,0,-2.288704,-1.421495,-6.474836\H,0,-2.488823,-3.179653
 ,-6.685197\H,0,-3.807843,-2.070639,-7.14509\C,0,-1.44372,-0.733534,-0.
 217938\C,0,-0.715944,-1.961202,-0.098418\C,0,-0.699059,0.420328,-0.105
 809\C,0,0.71599,-1.961202,0.09813\N,0,-1.236228,-3.186178,-0.143093\H,
 0,-1.201657,1.37756,-0.195196\C,0,0.698975,0.420325,0.106479\N,0,1.236
 335,-3.18617,0.142331\C,0,1.4437,-0.73354,0.218145\S,0,0.000088,-4.227
 401,-0.000648\H,0,1.201516,1.377551,0.196251\C,0,2.8861,-0.712627,0.40
 4092\C,0,3.65506,-1.436774,1.282128\S,0,3.874687,0.35105,-0.553394\C,0
 ,5.043708,-1.141687,1.175174\O,0,3.120798,-2.25936,2.210385\C,0,5.3393
 11,-0.186708,0.225023\O,0,6.023772,-1.734215,1.898807\C,0,3.837347,-3.
 468805,2.453702\C,0,5.725191,-2.013287,3.268064\H,0,3.094968,-4.186374
 ,2.809466\H,0,4.254187,-3.839899,1.513699\C,0,4.961561,-3.323803,3.486
 322\H,0,6.692035,-2.056874,3.774095\H,0,5.148102,-1.184927,3.688033\C,
 0,4.429122,-3.322179,4.920779\C,0,5.869641,-4.549847,3.377511\H,0,3.96
 3987,-4.29785,5.1355\H,0,5.269481,-3.199841,5.624668\O,0,3.495519,-2.2
 89783,5.101248\H,0,6.626896,-4.513723,4.177275\H,0,5.271544,-5.462907,
 3.536822\O,0,6.493006,-4.596807,2.120827\C,0,3.001701,-2.248919,6.4190
 49\C,0,7.319729,-5.728023,1.983579\H,0,2.28909,-1.425734,6.475073\H,0,
 2.489471,-3.184015,6.684152\H,0,3.808402,-2.075152,7.144669\H,0,7.7594
 27,-5.691826,0.986637\H,0,8.125626,-5.728062,2.730376\H,0,6.746388,-6.
 659502,2.089246\C,0,6.632107,0.330846,-0.118039\C,0,6.917106,1.319624,
 -1.034709\S,0,8.100594,-0.232124,0.641641\C,0,8.300296,1.617857,-1.136
 691\O,0,5.93975,1.89608,-1.773132\C,0,9.085863,0.870055,-0.28716\O,0,8
 .836507,2.558667,-1.951227\C,0,6.093014,3.290557,-2.045841\C,0,8.23202
 3,2.694651,-3.238036\H,0,5.083984,3.665314,-2.229423\H,0,6.495376,3.78
 8891,-1.159616\C,0,6.990862,3.593326,-3.250674\H,0,9.004885,3.11987,-3
 .881791\H,0,7.966029,1.704803,-3.619305\C,0,6.264864,3.375493,-4.57970
 3\C,0,7.351553,5.079566,-3.207301\H,0,5.425615,4.085435,-4.655607\H,0,
 6.952803,3.594854,-5.413586\O,0,5.794789,2.056607,-4.676257\H,0,7.9211
 65,5.341019,-4.113606\H,0,6.427215,5.681305,-3.218776\O,0,8.103094,5.3
 74985,-2.05921\C,0,5.137103,1.818409,-5.898468\C,0,8.430285,6.742275,-
 1.980318\H,0,4.805447,0.779936,-5.893376\H,0,4.262659,2.472814,-6.0164
 55\H,0,5.809357,1.976336,-6.753088\H,0,9.004911,6.887859,-1.065378\H,0
 ,9.038292,7.058633,-2.838919\H,0,7.528516,7.368931,-1.941256\C,0,10.51
 3258,0.920701,-0.147603\C,0,11.309453,0.166538,0.681117\S,0,11.520683,
 2.016338,-1.070947\C,0,12.698173,0.457295,0.569611\O,0,10.826988,-0.78
 3293,1.520069\C,0,12.982018,1.43411,-0.338155\O,0,13.636597,-0.182634,
 1.318571\C,0,11.783769,-1.179673,2.507129\C,0,13.137609,-1.398906,1.87
 59\H,0,11.845977,-0.407021,3.281526\H,0,11.406721,-2.10227,2.947118\H,
 0,13.862379,-1.716861,2.624978\H,0,13.070342,-2.162311,1.091926\C,0,-1
 4.320169,1.982908,0.689435\H,0,-14.457152,3.001371,0.311466\H,0,-15.09
 4932,1.354013,0.246805\H,0,-14.478085,2.007122,1.771242\C,0,14.320039,
 1.98346,-0.689026\H,0,14.456957,3.001805,-0.310719\H,0,15.094845,1.354
 465,-0.246618\H,0,14.477945,2.008047,-1.770828\\Version=ES64L-G09RevD.
 01\State=1-A\HF=-6879.2403675\RMSD=5.786e-09\PG=C01 [X(C64H72N2O20S7)]
 \\@


 OUR LITTLE SYSTEMS HAVE THEIR DAY,
   THEY HAVE THEIR DAY AND CEASE TO BE.
   THEY ARE BUT BROKEN LIGHTS OF THEE,
 AND THOU, OH LORD, ART MORE THAN THEY.
          -------------------
 LET KNOWLEDGE GROW FROM MORE TO MORE,
   BUT MORE OF REVERENCE IN US DWELL.
   THAT MIND AND SOUL, ACCORDING WELL,
 MAY MAKE ONE MUSIC AS BEFORE.....
          -------------------
                    LORD TENNYSON
 Job cpu time:       1 days 10 hours 19 minutes 13.9 seconds.
 File lengths (MBytes):  RWF=  13096 Int=      0 D2E=      0 Chk=   1656 Scr=      1
 Normal termination of Gaussian 09 at Wed Feb 11 04:27:23 2015.
