 Entering Link 1 = C:\G03W\l1.exe PID=        24.
  
 Copyright (c) 1988,1990,1992,1993,1995,1998,2003,2004, Gaussian, Inc.
                  All Rights Reserved.
  
 This is the Gaussian(R) 03 program.  It is based on the
 the Gaussian(R) 98 system (copyright 1998, Gaussian, Inc.),
 the Gaussian(R) 94 system (copyright 1995, Gaussian, Inc.),
 the Gaussian 92(TM) system (copyright 1992, Gaussian, Inc.),
 the Gaussian 90(TM) system (copyright 1990, Gaussian, Inc.),
 the Gaussian 88(TM) system (copyright 1988, Gaussian, Inc.),
 the Gaussian 86(TM) system (copyright 1986, Carnegie Mellon
 University), and the Gaussian 82(TM) system (copyright 1983,
 Carnegie Mellon University). Gaussian is a federally registered
 trademark of Gaussian, Inc.
  
 This software contains proprietary and confidential information,
 including trade secrets, belonging to Gaussian, Inc.
  
 This software is provided under written license and may be
 used, copied, transmitted, or stored only in accord with that
 written license.
  
 The following legend is applicable only to US Government
 contracts under FAR:
  
                    RESTRICTED RIGHTS LEGEND
  
 Use, reproduction and disclosure by the US Government is
 subject to restrictions as set forth in subparagraphs (a)
 and (c) of the Commercial Computer Software - Restricted
 Rights clause in FAR 52.227-19.
  
 Gaussian, Inc.
 340 Quinnipiac St., Bldg. 40, Wallingford CT 06492
  
  
 ---------------------------------------------------------------
 Warning -- This program may not be used in any manner that
 competes with the business of Gaussian, Inc. or will provide
 assistance to any competitor of Gaussian, Inc.  The licensee
 of this program is prohibited from giving any competitor of
 Gaussian, Inc. access to this program.  By using this program,
 the user acknowledges that Gaussian, Inc. is engaged in the
 business of creating and licensing software in the field of
 computational chemistry and represents and warrants to the
 licensee that it is not a competitor of Gaussian, Inc. and that
 it will not use this program in any manner prohibited above.
 ---------------------------------------------------------------
  

 Cite this work as:
 Gaussian 03, Revision C.01,
 M. J. Frisch, G. W. Trucks, H. B. Schlegel, G. E. Scuseria, 
 M. A. Robb, J. R. Cheeseman, J. A. Montgomery, Jr., T. Vreven, 
 K. N. Kudin, J. C. Burant, J. M. Millam, S. S. Iyengar, J. Tomasi, 
 V. Barone, B. Mennucci, M. Cossi, G. Scalmani, N. Rega, 
 G. A. Petersson, H. Nakatsuji, M. Hada, M. Ehara, K. Toyota, 
 R. Fukuda, J. Hasegawa, M. Ishida, T. Nakajima, Y. Honda, O. Kitao, 
 H. Nakai, M. Klene, X. Li, J. E. Knox, H. P. Hratchian, J. B. Cross, 
 C. Adamo, J. Jaramillo, R. Gomperts, R. E. Stratmann, O. Yazyev, 
 A. J. Austin, R. Cammi, C. Pomelli, J. W. Ochterski, P. Y. Ayala, 
 K. Morokuma, G. A. Voth, P. Salvador, J. J. Dannenberg, 
 V. G. Zakrzewski, S. Dapprich, A. D. Daniels, M. C. Strain, 
 O. Farkas, D. K. Malick, A. D. Rabuck, K. Raghavachari, 
 J. B. Foresman, J. V. Ortiz, Q. Cui, A. G. Baboul, S. Clifford, 
 J. Cioslowski, B. B. Stefanov, G. Liu, A. Liashenko, P. Piskorz, 
 I. Komaromi, R. L. Martin, D. J. Fox, T. Keith, M. A. Al-Laham, 
 C. Y. Peng, A. Nanayakkara, M. Challacombe, P. M. W. Gill, 
 B. Johnson, W. Chen, M. W. Wong, C. Gonzalez, and J. A. Pople, 
 Gaussian, Inc., Wallingford CT, 2004.
 
 ******************************************
 Gaussian 03:  IA32W-G03RevC.01  3-Apr-2004
                21-Jun-2014 
 ******************************************
 %chk=Z:\home\chris\Desktop\methane_TD.chk
 Default route:  MaxDisk=2000MB
 -----------------------------------
 # td rb3lyp/3-21g geom=connectivity
 -----------------------------------
 1/38=1,57=2/1;
 2/17=6,18=5,40=1/2;
 3/5=5,11=2,16=1,25=1,30=1,74=-5/1,2,8,3;
 4/7=1/1;
 5/5=2,38=5/2;
 8/6=1,10=1,27=262144000/1;
 9/27=262144000,42=1/14;
 6/7=2,8=2,9=2,10=2/1;
 99/5=1,9=1/99;
 -------------------
 Title Card Required
 -------------------
 Symbolic Z-matrix:
 Charge =  0 Multiplicity = 1
 C
 H                    1    B1
 H                    1    B2       2    A1
 H                    1    B3       2    A2       3    D1       0
 H                    1    B4       2    A3       3    D2       0
       Variables:
  B1                    1.0935                   
  B2                    1.0935                   
  B3                    1.0935                   
  B4                    1.0935                   
  A1                  109.47122                  
  A2                  109.47122                  
  A3                  109.47122                  
  D1                  120.                       
  D2                 -120.                       
 
     3 tetrahedral angles replaced.
    3 tetrahedral angles replaced.
                          Input orientation:                          
 ---------------------------------------------------------------------
 Center     Atomic     Atomic              Coordinates (Angstroms)
 Number     Number      Type              X           Y           Z
 ---------------------------------------------------------------------
    1          6             0        0.000000    0.000000    0.000000
    2          1             0        0.000000    0.000000    1.093498
    3          1             0        1.030960    0.000000   -0.364499
    4          1             0       -0.515480   -0.892837   -0.364499
    5          1             0       -0.515480    0.892837   -0.364499
 ---------------------------------------------------------------------
                    Distance matrix (angstroms):
                    1          2          3          4          5
     1  C    0.000000
     2  H    1.093498   0.000000
     3  H    1.093498   1.785675   0.000000
     4  H    1.093498   1.785675   1.785675   0.000000
     5  H    1.093498   1.785675   1.785675   1.785675   0.000000
 Stoichiometry    CH4
 Framework group  TD[O(C),4C3(H)]
 Deg. of freedom     1
 Full point group                 TD      NOp  24
 Largest Abelian subgroup         D2      NOp   4
 Largest concise Abelian subgroup D2      NOp   4
                         Standard orientation:                         
 ---------------------------------------------------------------------
 Center     Atomic     Atomic              Coordinates (Angstroms)
 Number     Number      Type              X           Y           Z
 ---------------------------------------------------------------------
    1          6             0        0.000000    0.000000    0.000000
    2          1             0        0.631331    0.631331    0.631331
    3          1             0       -0.631331   -0.631331    0.631331
    4          1             0       -0.631331    0.631331   -0.631331
    5          1             0        0.631331   -0.631331   -0.631331
 ---------------------------------------------------------------------
 Rotational constants (GHZ):    157.2632849    157.2632849    157.2632849
 Standard basis: 3-21G (6D, 7F)
 There are     5 symmetry adapted basis functions of A   symmetry.
 There are     4 symmetry adapted basis functions of B1  symmetry.
 There are     4 symmetry adapted basis functions of B2  symmetry.
 There are     4 symmetry adapted basis functions of B3  symmetry.
 Integral buffers will be    262144 words long.
 Raffenetti 2 integral format.
 Two-electron integral symmetry is turned on.
    17 basis functions,    27 primitive gaussians,    17 cartesian basis functions
     5 alpha electrons        5 beta electrons
       nuclear repulsion energy        13.3924107304 Hartrees.
 NAtoms=    5 NActive=    5 NUniq=    2 SFac= 5.66D+00 NAtFMM=   60 Big=F
 One-electron integrals computed using PRISM.
 NBasis=    17 RedAO= T  NBF=     5     4     4     4
 NBsUse=    17 1.00D-06 NBFU=     5     4     4     4
 Harris functional with IExCor=  402 diagonalized for initial guess.
 ExpMin= 1.83D-01 ExpMax= 1.72D+02 ExpMxC= 1.72D+02 IAcc=1 IRadAn=         1 AccDes= 1.00D-06
 HarFok:  IExCor= 402 AccDes= 1.00D-06 IRadAn=         1 IDoV=1
 ScaDFX=  1.000000  1.000000  1.000000  1.000000
 Initial guess orbital symmetries:
       Occupied  (A1) (A1) (T2) (T2) (T2)
       Virtual   (A1) (T2) (T2) (T2) (T2) (T2) (T2) (A1) (T2) (T2)
                 (T2) (A1)
 The electronic state of the initial guess is 1-A1.
 Requested convergence on RMS density matrix=1.00D-08 within 128 cycles.
 Requested convergence on MAX density matrix=1.00D-06.
 Requested convergence on             energy=1.00D-06.
 No special actions if energy rises.
 Keep R1 integrals in memory in canonical form, NReq=      472639.
 Integral accuracy reduced to 1.0D-05 until final iterations.
 Initial convergence to 1.0D-05 achieved.  Increase integral accuracy.
 SCF Done:  E(RB+HF-LYP) =  -40.3016014127     A.U. after   10 cycles
             Convg  =    0.7151D-09             -V/T =  2.0107
             S**2   =   0.0000
 ExpMin= 1.83D-01 ExpMax= 1.72D+02 ExpMxC= 1.72D+02 IAcc=1 IRadAn=         1 AccDes= 1.00D-06
 HarFok:  IExCor= 205 AccDes= 1.00D-06 IRadAn=         1 IDoV=1
 ScaDFX=  1.000000  1.000000  1.000000  1.000000
 Range of M.O.s used for correlation:     2    17
 NBasis=    17 NAE=     5 NBE=     5 NFC=     1 NFV=     0
 NROrb=     16 NOA=     4 NOB=     4 NVA=    12 NVB=    12
 R1, R2, and R3 integrals will be kept in memory, NReq=      435343.
 Orbital symmetries:
       Occupied  (A1) (A1) (T2) (T2) (T2)
       Virtual   (A1) (T2) (T2) (T2) (T2) (T2) (T2) (A1) (T2) (T2)
                 (T2) (A1)
    12 initial guesses have been made.
 Convergence on wavefunction:    0.001000000000000
 Iteration     1 Dimension    12 NMult    12
 CISAX will form  12 AO SS matrices at one time.
 New state      1 was old state      2
 Iteration     2 Dimension    18 NMult    18
 Iteration     3 Dimension    24 NMult    24
 Iteration     4 Dimension    30 NMult    30
 Convergence on energies, max DE= 4.50D-06.
 ***********************************************************************
 Excited states from <AA,BB:AA,BB> singles matrix:
 ***********************************************************************
 
 Ground to excited state Transition electric dipole moments (Au):
       state          X           Y           Z          Osc.
         1         0.4521     -0.4162     -0.2196      0.1393
         2         0.3943      0.5012     -0.1383      0.1393
         3         0.2569     -0.0368      0.5987      0.1393
 Ground to excited state transition velocity dipole Moments (Au):
       state          X           Y           Z          Osc.
         1        -0.2415      0.2223      0.1173      0.1651
         2        -0.2106     -0.2678      0.0739      0.1651
         3        -0.1372      0.0197     -0.3198      0.1651
 Ground to excited state transition magnetic dipole Moments (Au):
       state          X           Y           Z
         1         0.0000      0.0000      0.0000
         2         0.0000      0.0000      0.0000
         3         0.0000      0.0000      0.0000
 <0|del|b> * <b|rxdel|0>  (Au), Rotatory Strengths (R) in
 cgs (10**-40 erg-esu-cm/Gauss)
       state          X           Y           Z     R(velocity)
         1         0.0000      0.0000      0.0000      0.0000
         2         0.0000      0.0000      0.0000      0.0000
         3         0.0000      0.0000      0.0000      0.0000
 <0|r|b> * <b|rxdel|0>  (Au), Rotatory Strengths (R) in
 cgs (10**-40 erg-esu-cm/Gauss)
       state          X           Y           Z     R(length)
         1         0.0000      0.0000      0.0000      0.0000
         2         0.0000      0.0000      0.0000      0.0000
         3         0.0000      0.0000      0.0000      0.0000
  <0|del|b> * <b|r|0>  (Au)
       state          X           Y           Z       Osc.(frdel)
         1        -0.1092     -0.0925     -0.0258      0.1517
         2        -0.0830     -0.1342     -0.0102      0.1517
         3        -0.0352     -0.0007     -0.1915      0.1517
 Ground to excited state transition densities written to RWF  633

 Excitation energies and oscillator strengths:
 
 Excited State   1:   Singlet-T2    13.3534 eV   92.85 nm  f=0.1393
       3 ->  6        -0.23120
       4 ->  6        -0.43826
       5 ->  6         0.47606
 This state for optimization and/or second-order correction.
 Copying the excited state density for this state as the 1-particle RhoCI density.
 
 Excited State   2:   Singlet-T2    13.3534 eV   92.85 nm  f=0.1393
       3 ->  6        -0.14565
       4 ->  6         0.52781
       5 ->  6         0.41517
 
 Excited State   3:   Singlet-T2    13.3534 eV   92.85 nm  f=0.1393
       3 ->  6         0.63047
       5 ->  6         0.27049

 **********************************************************************

            Population analysis using the SCF density.

 **********************************************************************

 Orbital symmetries:
       Occupied  (A1) (A1) (T2) (T2) (T2)
       Virtual   (A1) (T2) (T2) (T2) (T2) (T2) (T2) (A1) (T2) (T2)
                 (T2) (A1)
 The electronic state is 1-A1.
 Alpha  occ. eigenvalues --  -10.09993  -0.68985  -0.38882  -0.38882  -0.38882
 Alpha virt. eigenvalues --    0.14583   0.19391   0.19391   0.19391   0.70792
 Alpha virt. eigenvalues --    0.70792   0.70792   1.02427   1.05544   1.05544
 Alpha virt. eigenvalues --    1.05544   1.69676
          Condensed to atoms (all electrons):
              1          2          3          4          5
     1  C    5.295367   0.367255   0.367255   0.367255   0.367255
     2  H    0.367255   0.519381  -0.025911  -0.025911  -0.025911
     3  H    0.367255  -0.025911   0.519381  -0.025911  -0.025911
     4  H    0.367255  -0.025911  -0.025911   0.519381  -0.025911
     5  H    0.367255  -0.025911  -0.025911  -0.025911   0.519381
 Mulliken atomic charges:
              1
     1  C   -0.764386
     2  H    0.191097
     3  H    0.191097
     4  H    0.191097
     5  H    0.191097
 Sum of Mulliken charges=   0.00000
 Atomic charges with hydrogens summed into heavy atoms:
              1
     1  C    0.000000
     2  H    0.000000
     3  H    0.000000
     4  H    0.000000
     5  H    0.000000
 Sum of Mulliken charges=   0.00000
 Electronic spatial extent (au):  <R**2>=    35.4879
 Charge=     0.0000 electrons
 Dipole moment (field-independent basis, Debye):
    X=     0.0000    Y=     0.0000    Z=     0.0000  Tot=     0.0000
 Quadrupole moment (field-independent basis, Debye-Ang):
   XX=    -8.2530   YY=    -8.2530   ZZ=    -8.2530
   XY=     0.0000   XZ=     0.0000   YZ=     0.0000
 Traceless Quadrupole moment (field-independent basis, Debye-Ang):
   XX=     0.0000   YY=     0.0000   ZZ=     0.0000
   XY=     0.0000   XZ=     0.0000   YZ=     0.0000
 Octapole moment (field-independent basis, Debye-Ang**2):
  XXX=     0.0000  YYY=     0.0000  ZZZ=     0.0000  XYY=     0.0000
  XXY=     0.0000  XXZ=     0.0000  XZZ=     0.0000  YZZ=     0.0000
  YYZ=     0.0000  XYZ=     0.7448
 Hexadecapole moment (field-independent basis, Debye-Ang**3):
 XXXX=   -15.2581 YYYY=   -15.2581 ZZZZ=   -15.2581 XXXY=     0.0000
 XXXZ=     0.0000 YYYX=     0.0000 YYYZ=     0.0000 ZZZX=     0.0000
 ZZZY=     0.0000 XXYY=    -4.6274 XXZZ=    -4.6274 YYZZ=    -4.6274
 XXYZ=     0.0000 YYXZ=     0.0000 ZZXY=     0.0000
 N-N= 1.339241073042D+01 E-N=-1.193409842642D+02  KE= 3.987417709502D+01
 Symmetry A    KE= 3.414116348978D+01
 Symmetry B1   KE= 1.911004535080D+00
 Symmetry B2   KE= 1.911004535080D+00
 Symmetry B3   KE= 1.911004535080D+00
 1|1|UNPC-UNK|SP|RTD-B3LYP-FC|3-21G|C1H4|PCUSER|21-Jun-2014|0||# TD RB3
 LYP/3-21G GEOM=CONNECTIVITY||Title Card Required||0,1|C|H,1,1.09349799
 |H,1,1.09349799,2,109.47122063|H,1,1.09349799,2,109.47122063,3,120.,0|
 H,1,1.09349799,2,109.47122063,3,-120.,0||Version=IA32W-G03RevC.01|Stat
 e=1-A1|HF=-40.3016014|RMSD=7.151e-010|PG=TD [O(C1),4C3(H1)]||@


 HIGGLEDY-PIGGLEDY
 NIC'LAUS COPERNICUS
 LOOKED AT THE UNIVERSE,
 SPOKE TO THE THRONG;
 GIVE UP YOUR PTOLOMY,
 RISE UP AND FOLLOW ME,
 HELIOCENTRICALLY
 PTOLEMY'S WRONG.
   -- NANCY L. STARK
 Job cpu time:  0 days  0 hours  0 minutes  5.0 seconds.
 File lengths (MBytes):  RWF=     11 Int=      0 D2E=      0 Chk=      7 Scr=      1
 Normal termination of Gaussian 03 at Sat Jun 21 12:16:35 2014.
