 Entering Gaussian System, Link 0=g09
 Input=6hl13la6ea-6ia4dd-4aa4af4ae-.gjf
 Output=6hl13la6ea-6ia4dd-4aa4af4ae-.log
 Initial command:
 /usr/local/bin/g09/l1.exe "/tmp/ccollins/Gau-25303.inp" -scrdir="/tmp/ccollins/"
 Default is to use a total of  12 processors:
                               12 via shared-memory
                                1 via Linda
 Entering Link 1 = /usr/local/bin/g09/l1.exe PID=     25304.
  
 Copyright (c) 1988,1990,1992,1993,1995,1998,2003,2009,2013,
            Gaussian, Inc.  All Rights Reserved.
  
 This is part of the Gaussian(R) 09 program.  It is based on
 the Gaussian(R) 03 system (copyright 2003, Gaussian, Inc.),
 the Gaussian(R) 98 system (copyright 1998, Gaussian, Inc.),
 the Gaussian(R) 94 system (copyright 1995, Gaussian, Inc.),
 the Gaussian 92(TM) system (copyright 1992, Gaussian, Inc.),
 the Gaussian 90(TM) system (copyright 1990, Gaussian, Inc.),
 the Gaussian 88(TM) system (copyright 1988, Gaussian, Inc.),
 the Gaussian 86(TM) system (copyright 1986, Carnegie Mellon
 University), and the Gaussian 82(TM) system (copyright 1983,
 Carnegie Mellon University). Gaussian is a federally registered
 trademark of Gaussian, Inc.
  
 This software contains proprietary and confidential information,
 including trade secrets, belonging to Gaussian, Inc.
  
 This software is provided under written license and may be
 used, copied, transmitted, or stored only in accord with that
 written license.
  
 The following legend is applicable only to US Government
 contracts under FAR:
  
                    RESTRICTED RIGHTS LEGEND
  
 Use, reproduction and disclosure by the US Government is
 subject to restrictions as set forth in subparagraphs (a)
 and (c) of the Commercial Computer Software - Restricted
 Rights clause in FAR 52.227-19.
  
 Gaussian, Inc.
 340 Quinnipiac St., Bldg. 40, Wallingford CT 06492
  
  
 ---------------------------------------------------------------
 Warning -- This program may not be used in any manner that
 competes with the business of Gaussian, Inc. or will provide
 assistance to any competitor of Gaussian, Inc.  The licensee
 of this program is prohibited from giving any competitor of
 Gaussian, Inc. access to this program.  By using this program,
 the user acknowledges that Gaussian, Inc. is engaged in the
 business of creating and licensing software in the field of
 computational chemistry and represents and warrants to the
 licensee that it is not a competitor of Gaussian, Inc. and that
 it will not use this program in any manner prohibited above.
 ---------------------------------------------------------------
  

 Cite this work as:
 Gaussian 09, Revision D.01,
 M. J. Frisch, G. W. Trucks, H. B. Schlegel, G. E. Scuseria, 
 M. A. Robb, J. R. Cheeseman, G. Scalmani, V. Barone, B. Mennucci, 
 G. A. Petersson, H. Nakatsuji, M. Caricato, X. Li, H. P. Hratchian, 
 A. F. Izmaylov, J. Bloino, G. Zheng, J. L. Sonnenberg, M. Hada, 
 M. Ehara, K. Toyota, R. Fukuda, J. Hasegawa, M. Ishida, T. Nakajima, 
 Y. Honda, O. Kitao, H. Nakai, T. Vreven, J. A. Montgomery, Jr., 
 J. E. Peralta, F. Ogliaro, M. Bearpark, J. J. Heyd, E. Brothers, 
 K. N. Kudin, V. N. Staroverov, T. Keith, R. Kobayashi, J. Normand, 
 K. Raghavachari, A. Rendell, J. C. Burant, S. S. Iyengar, J. Tomasi, 
 M. Cossi, N. Rega, J. M. Millam, M. Klene, J. E. Knox, J. B. Cross, 
 V. Bakken, C. Adamo, J. Jaramillo, R. Gomperts, R. E. Stratmann, 
 O. Yazyev, A. J. Austin, R. Cammi, C. Pomelli, J. W. Ochterski, 
 R. L. Martin, K. Morokuma, V. G. Zakrzewski, G. A. Voth, 
 P. Salvador, J. J. Dannenberg, S. Dapprich, A. D. Daniels, 
 O. Farkas, J. B. Foresman, J. V. Ortiz, J. Cioslowski, 
 and D. J. Fox, Gaussian, Inc., Wallingford CT, 2013.
 
 ******************************************
 Gaussian 09:  ES64L-G09RevD.01 24-Apr-2013
                 3-May-2015 
 ******************************************
 %nprocshared=12
 Will use up to   12 processors via shared memory.
 %mem=30GB
 %chk=6hl13la6ea-6ia4dd-4aa4af4ae-.chk
 ----------------------------------------
 # opt B3LYP/6-31g(d,p) geom=connectivity
 ----------------------------------------
 1/14=-1,18=20,19=15,26=3,38=1,57=2/1,3;
 2/9=110,12=2,17=6,18=5,40=1/2;
 3/5=1,6=6,7=101,11=2,16=1,25=1,30=1,71=1,74=-5/1,2,3;
 4//1;
 5/5=2,38=5/2;
 6/7=2,8=2,9=2,10=2,28=1/1;
 7//1,2,3,16;
 1/14=-1,18=20,19=15,26=3/3(2);
 2/9=110/2;
 99//99;
 2/9=110/2;
 3/5=1,6=6,7=101,11=2,16=1,25=1,30=1,71=1,74=-5/1,2,3;
 4/5=5,16=3,69=1/1;
 5/5=2,38=5/2;
 7//1,2,3,16;
 1/14=-1,18=20,19=15,26=3/3(-5);
 2/9=110/2;
 6/7=2,8=2,9=2,10=2,19=2,28=1/1;
 99/9=1/99;
 ----------------------------
 6hl13la6ea-6ia4dd-4aa4af4ae-
 ----------------------------
 Symbolic Z-matrix:
 Charge =  0 Multiplicity = 1
 C                    -4.5775   -2.027     0.0001 
 C                    -3.1706   -2.027     0.0001 
 C                    -2.5039   -0.8004    0.0001 
 C                    -3.258     0.3743   -0.0001 
 C                    -4.6612    0.2715   -0.0003 
 N                    -5.3207   -0.9034   -0.0001 
 H                    -1.4054   -0.7607   -0.0009 
 H                    -2.5135   -3.1487    0.0004 
 N                    -5.2431   -3.1437    0.0002 
 H                    -6.11514  -3.01199  -0.47118 
 H                    -4.71246  -3.84808  -0.47122 
 O                    -2.68458   1.54105  -0.0003 
 C                    -1.26427   1.37481  -0.00045 
 H                    -0.79272   2.3353   -0.00078 
 H                    -0.96851   0.8326    0.87336 
 H                    -0.96875   0.83212  -0.87394 
 C                    -5.40653   1.33664  -0.0004 
 C                    -5.0646    2.65232  -0.00083 
 C                    -6.27974   3.41      0.00038 
 C                    -7.31078   2.52399  -0.00027 
 N                    -6.78064   1.25349  -0.00028 
 H                    -7.30657   0.41002  -0.0008 
 O                    -3.85581   3.13081  -0.00072 
 C                    -2.9159    2.05309  -0.00076 
 H                    -1.92117   2.44733  -0.00083 
 H                    -3.06154   1.45276   0.87297 
 H                    -3.06165   1.45271  -0.87433 
 H                    -6.38211   4.70596   0.00142 
 C                    -9.48502   1.63483  -0.02053 
 C                    -8.59524   2.72443   0.00021 
 C                    -9.12372   4.01644   0.02149 
 C                    -10.51057   4.17527   0.02113 
 C                    -11.31838   3.02353  -0.00072 
 N                    -10.82539   1.76978  -0.0212 
 H                    -8.45973   4.89231   0.03705 
 C                    -9.04097   0.41318  -0.04066 
 C                    -8.63067  -0.71562  -0.05926 
 H                    -8.26519  -1.72113  -0.07583 
 H                    -11.05167   5.35715   0.04026 
 C                    -13.41394   1.96196  -0.00234 
 C                    -12.6148   3.11986  -0.00187 
 C                    -13.24562   4.36529  -0.00234 
 C                    -14.64076   4.4119   -0.00346 
 C                    -15.35319   3.19865  -0.00406 
 N                    -14.76083   1.98851  -0.00342 
 H                    -12.65433   5.29193  -0.003 
 C                    -12.87282   0.77959  -0.00183 
 H                    -11.93008   0.81899   0.50274 
 H                    -12.72416   0.45491  -1.01053 
 H                    -13.51894   0.0919    0.50267 
 H                    -15.27529   5.54653  -0.00413 
 C                    -17.36347   4.40792   0.01657 
 C                    -18.77037   4.34517   0.01612 
 C                    -16.65311   3.19024  -0.00501 
 C                    -19.44238   3.12512  -0.00547 
 H                    -19.33807   5.27285   0.03277 
 C                    -17.32349   1.97196  -0.02656 
 C                    -18.72163   1.93043  -0.02705 
 H                    -16.7532   1.04669  -0.04287 
 N                    -16.29023   6.60622   0.055 
 C                    -16.79321   5.57598   0.03699 
 N                    -19.89076  -0.21842  -0.06476 
 C                    -19.34285   0.78864  -0.04709 
 C                    -21.4643   4.31499  -0.00451 
 C                    -22.87052   4.2386   -0.00285 
 C                    -20.74215   3.10408  -0.00533 
 C                    -23.53065   3.01189  -0.00265 
 H                    -23.4472   5.16088  -0.00199 
 C                    -21.40068   1.87916  -0.00513 
 C                    -22.79835   1.82406  -0.00389 
 H                    -20.82143   0.95932  -0.0057 
 H                    -20.90539   5.48872  -0.00489 
 H                    -23.40845   0.67612  -0.00355 
 C                    -25.56402   4.1821    0.00031 
 C                    -26.96943   4.09208   0.00338 
 C                    -24.83016   2.97825  -0.00122 
 C                    -27.61763   2.85902   0.00426 
 H                    -27.55503   5.00871   0.0048 
 C                    -25.47677   1.747    -0.00034 
 C                    -26.87384   1.67835   0.00231 
 H                    -24.88864   0.83283  -0.00147 
 H                    -25.01653   5.36119  -0.00065 
 O                    -27.47281   0.5245    0.00328 
 H                    -26.81724  -0.17681   0.00352 
 C                    -29.6622   4.00925   0.03056 
 C                    -31.06667   3.90558   0.03409 
 C                    -28.91675   2.81277   0.00699 
 C                    -31.70293   2.66647   0.01443 
 H                    -31.66109   4.81634   0.05233 
 C                    -29.55144   1.57549  -0.01264 
 C                    -30.94778   1.49328  -0.00917 
 H                    -28.9545   0.66721  -0.03055 
 H                    -33.00162   2.60761   0.01825 
 H                    -29.12612   5.19343   0.04934 
 C                    -31.53554   0.33388  -0.02743 
 C                    -32.07864  -0.7374   -0.0443 
 H                    -32.56242  -1.69167  -0.05933 
 

 GradGradGradGradGradGradGradGradGradGradGradGradGradGradGradGradGradGrad
 Berny optimization.
 Initialization pass.
                           ----------------------------
                           !    Initial Parameters    !
                           ! (Angstroms and Degrees)  !
 --------------------------                            --------------------------
 ! Name  Definition              Value          Derivative Info.                !
 --------------------------------------------------------------------------------
 ! R1    R(1,2)                  1.4069         estimate D2E/DX2                !
 ! R2    R(1,6)                  1.3472         estimate D2E/DX2                !
 ! R3    R(1,9)                  1.3            estimate D2E/DX2                !
 ! R4    R(2,3)                  1.3961         estimate D2E/DX2                !
 ! R5    R(2,8)                  1.3            estimate D2E/DX2                !
 ! R6    R(3,4)                  1.3959         estimate D2E/DX2                !
 ! R7    R(3,7)                  1.0992         estimate D2E/DX2                !
 ! R8    R(4,5)                  1.407          estimate D2E/DX2                !
 ! R9    R(4,12)                 1.3            estimate D2E/DX2                !
 ! R10   R(5,6)                  1.3473         estimate D2E/DX2                !
 ! R11   R(5,17)                 1.3            estimate D2E/DX2                !
 ! R12   R(9,10)                 1.0            estimate D2E/DX2                !
 ! R13   R(9,11)                 1.0            estimate D2E/DX2                !
 ! R14   R(12,13)                1.43           estimate D2E/DX2                !
 ! R15   R(13,14)                1.07           estimate D2E/DX2                !
 ! R16   R(13,15)                1.07           estimate D2E/DX2                !
 ! R17   R(13,16)                1.07           estimate D2E/DX2                !
 ! R18   R(17,18)                1.3594         estimate D2E/DX2                !
 ! R19   R(17,21)                1.3766         estimate D2E/DX2                !
 ! R20   R(18,19)                1.432          estimate D2E/DX2                !
 ! R21   R(18,23)                1.3            estimate D2E/DX2                !
 ! R22   R(19,20)                1.3594         estimate D2E/DX2                !
 ! R23   R(19,28)                1.3            estimate D2E/DX2                !
 ! R24   R(20,21)                1.3767         estimate D2E/DX2                !
 ! R25   R(20,30)                1.3            estimate D2E/DX2                !
 ! R26   R(21,22)                0.994          estimate D2E/DX2                !
 ! R27   R(23,24)                1.43           estimate D2E/DX2                !
 ! R28   R(24,25)                1.07           estimate D2E/DX2                !
 ! R29   R(24,26)                1.07           estimate D2E/DX2                !
 ! R30   R(24,27)                1.07           estimate D2E/DX2                !
 ! R31   R(29,30)                1.4069         estimate D2E/DX2                !
 ! R32   R(29,34)                1.3472         estimate D2E/DX2                !
 ! R33   R(29,36)                1.3            estimate D2E/DX2                !
 ! R34   R(30,31)                1.3961         estimate D2E/DX2                !
 ! R35   R(31,32)                1.3959         estimate D2E/DX2                !
 ! R36   R(31,35)                1.0992         estimate D2E/DX2                !
 ! R37   R(32,33)                1.407          estimate D2E/DX2                !
 ! R38   R(32,39)                1.3            estimate D2E/DX2                !
 ! R39   R(33,34)                1.3473         estimate D2E/DX2                !
 ! R40   R(33,41)                1.3            estimate D2E/DX2                !
 ! R41   R(36,37)                1.2012         estimate D2E/DX2                !
 ! R42   R(37,38)                1.07           estimate D2E/DX2                !
 ! R43   R(40,41)                1.4069         estimate D2E/DX2                !
 ! R44   R(40,45)                1.3472         estimate D2E/DX2                !
 ! R45   R(40,47)                1.3003         estimate D2E/DX2                !
 ! R46   R(41,42)                1.3961         estimate D2E/DX2                !
 ! R47   R(42,43)                1.3959         estimate D2E/DX2                !
 ! R48   R(42,46)                1.0992         estimate D2E/DX2                !
 ! R49   R(43,44)                1.407          estimate D2E/DX2                !
 ! R50   R(43,51)                1.3            estimate D2E/DX2                !
 ! R51   R(44,45)                1.3473         estimate D2E/DX2                !
 ! R52   R(44,54)                1.2999         estimate D2E/DX2                !
 ! R53   R(47,48)                1.07           estimate D2E/DX2                !
 ! R54   R(47,49)                1.0701         estimate D2E/DX2                !
 ! R55   R(47,50)                1.07           estimate D2E/DX2                !
 ! R56   R(52,53)                1.4083         estimate D2E/DX2                !
 ! R57   R(52,54)                1.4099         estimate D2E/DX2                !
 ! R58   R(52,61)                1.3            estimate D2E/DX2                !
 ! R59   R(53,55)                1.3931         estimate D2E/DX2                !
 ! R60   R(53,56)                1.0877         estimate D2E/DX2                !
 ! R61   R(54,57)                1.3907         estimate D2E/DX2                !
 ! R62   R(55,58)                1.3954         estimate D2E/DX2                !
 ! R63   R(55,66)                1.2999         estimate D2E/DX2                !
 ! R64   R(57,58)                1.3988         estimate D2E/DX2                !
 ! R65   R(57,59)                1.087          estimate D2E/DX2                !
 ! R66   R(58,63)                1.3            estimate D2E/DX2                !
 ! R67   R(60,61)                1.1466         estimate D2E/DX2                !
 ! R68   R(62,63)                1.1466         estimate D2E/DX2                !
 ! R69   R(64,65)                1.4083         estimate D2E/DX2                !
 ! R70   R(64,66)                1.4099         estimate D2E/DX2                !
 ! R71   R(64,72)                1.3            estimate D2E/DX2                !
 ! R72   R(65,67)                1.3931         estimate D2E/DX2                !
 ! R73   R(65,68)                1.0877         estimate D2E/DX2                !
 ! R74   R(66,69)                1.3907         estimate D2E/DX2                !
 ! R75   R(67,70)                1.3954         estimate D2E/DX2                !
 ! R76   R(67,76)                1.2999         estimate D2E/DX2                !
 ! R77   R(69,70)                1.3988         estimate D2E/DX2                !
 ! R78   R(69,71)                1.087          estimate D2E/DX2                !
 ! R79   R(70,73)                1.3            estimate D2E/DX2                !
 ! R80   R(74,75)                1.4083         estimate D2E/DX2                !
 ! R81   R(74,76)                1.4099         estimate D2E/DX2                !
 ! R82   R(74,82)                1.3            estimate D2E/DX2                !
 ! R83   R(75,77)                1.3931         estimate D2E/DX2                !
 ! R84   R(75,78)                1.0877         estimate D2E/DX2                !
 ! R85   R(76,79)                1.3907         estimate D2E/DX2                !
 ! R86   R(77,80)                1.3954         estimate D2E/DX2                !
 ! R87   R(77,87)                1.2999         estimate D2E/DX2                !
 ! R88   R(79,80)                1.3988         estimate D2E/DX2                !
 ! R89   R(79,81)                1.087          estimate D2E/DX2                !
 ! R90   R(80,83)                1.3            estimate D2E/DX2                !
 ! R91   R(83,84)                0.96           estimate D2E/DX2                !
 ! R92   R(85,86)                1.4083         estimate D2E/DX2                !
 ! R93   R(85,87)                1.4099         estimate D2E/DX2                !
 ! R94   R(85,94)                1.3            estimate D2E/DX2                !
 ! R95   R(86,88)                1.3931         estimate D2E/DX2                !
 ! R96   R(86,89)                1.0877         estimate D2E/DX2                !
 ! R97   R(87,90)                1.3907         estimate D2E/DX2                !
 ! R98   R(88,91)                1.3954         estimate D2E/DX2                !
 ! R99   R(88,93)                1.3            estimate D2E/DX2                !
 ! R100  R(90,91)                1.3988         estimate D2E/DX2                !
 ! R101  R(90,92)                1.087          estimate D2E/DX2                !
 ! R102  R(91,95)                1.3            estimate D2E/DX2                !
 ! R103  R(95,96)                1.2012         estimate D2E/DX2                !
 ! R104  R(96,97)                1.07           estimate D2E/DX2                !
 ! A1    A(2,1,6)              123.4825         estimate D2E/DX2                !
 ! A2    A(2,1,9)              120.7967         estimate D2E/DX2                !
 ! A3    A(6,1,9)              115.7208         estimate D2E/DX2                !
 ! A4    A(1,2,3)              118.5256         estimate D2E/DX2                !
 ! A5    A(1,2,8)              120.3621         estimate D2E/DX2                !
 ! A6    A(3,2,8)              121.1123         estimate D2E/DX2                !
 ! A7    A(2,3,4)              118.7759         estimate D2E/DX2                !
 ! A8    A(2,3,7)              120.5954         estimate D2E/DX2                !
 ! A9    A(4,3,7)              120.6287         estimate D2E/DX2                !
 ! A10   A(3,4,5)              118.5084         estimate D2E/DX2                !
 ! A11   A(3,4,12)             121.1287         estimate D2E/DX2                !
 ! A12   A(5,4,12)             120.3629         estimate D2E/DX2                !
 ! A13   A(4,5,6)              123.4966         estimate D2E/DX2                !
 ! A14   A(4,5,17)             120.7922         estimate D2E/DX2                !
 ! A15   A(6,5,17)             115.7112         estimate D2E/DX2                !
 ! A16   A(1,6,5)              117.211          estimate D2E/DX2                !
 ! A17   A(1,9,10)             109.4694         estimate D2E/DX2                !
 ! A18   A(1,9,11)             109.471          estimate D2E/DX2                !
 ! A19   A(10,9,11)            109.4696         estimate D2E/DX2                !
 ! A20   A(4,12,13)            109.497          estimate D2E/DX2                !
 ! A21   A(12,13,14)           109.473          estimate D2E/DX2                !
 ! A22   A(12,13,15)           109.4721         estimate D2E/DX2                !
 ! A23   A(12,13,16)           109.4737         estimate D2E/DX2                !
 ! A24   A(14,13,15)           109.4686         estimate D2E/DX2                !
 ! A25   A(14,13,16)           109.4702         estimate D2E/DX2                !
 ! A26   A(15,13,16)           109.4697         estimate D2E/DX2                !
 ! A27   A(5,17,18)            130.4497         estimate D2E/DX2                !
 ! A28   A(5,17,21)            121.5194         estimate D2E/DX2                !
 ! A29   A(18,17,21)           108.031          estimate D2E/DX2                !
 ! A30   A(17,18,19)           107.3766         estimate D2E/DX2                !
 ! A31   A(17,18,23)           126.1637         estimate D2E/DX2                !
 ! A32   A(19,18,23)           126.4597         estimate D2E/DX2                !
 ! A33   A(18,19,20)           107.3819         estimate D2E/DX2                !
 ! A34   A(18,19,28)           126.4612         estimate D2E/DX2                !
 ! A35   A(20,19,28)           126.1568         estimate D2E/DX2                !
 ! A36   A(19,20,21)           108.024          estimate D2E/DX2                !
 ! A37   A(19,20,30)           130.4572         estimate D2E/DX2                !
 ! A38   A(21,20,30)           121.5187         estimate D2E/DX2                !
 ! A39   A(17,21,20)           109.1864         estimate D2E/DX2                !
 ! A40   A(17,21,22)           125.4078         estimate D2E/DX2                !
 ! A41   A(20,21,22)           125.4058         estimate D2E/DX2                !
 ! A42   A(18,23,24)           109.497          estimate D2E/DX2                !
 ! A43   A(23,24,25)           109.4731         estimate D2E/DX2                !
 ! A44   A(23,24,26)           109.4722         estimate D2E/DX2                !
 ! A45   A(23,24,27)           109.4738         estimate D2E/DX2                !
 ! A46   A(25,24,26)           109.4686         estimate D2E/DX2                !
 ! A47   A(25,24,27)           109.4701         estimate D2E/DX2                !
 ! A48   A(26,24,27)           109.4696         estimate D2E/DX2                !
 ! A49   A(30,29,34)           123.4824         estimate D2E/DX2                !
 ! A50   A(30,29,36)           120.7967         estimate D2E/DX2                !
 ! A51   A(34,29,36)           115.7208         estimate D2E/DX2                !
 ! A52   A(20,30,29)           120.3621         estimate D2E/DX2                !
 ! A53   A(20,30,31)           121.1123         estimate D2E/DX2                !
 ! A54   A(29,30,31)           118.5256         estimate D2E/DX2                !
 ! A55   A(30,31,32)           118.7759         estimate D2E/DX2                !
 ! A56   A(30,31,35)           120.5954         estimate D2E/DX2                !
 ! A57   A(32,31,35)           120.6286         estimate D2E/DX2                !
 ! A58   A(31,32,33)           118.5084         estimate D2E/DX2                !
 ! A59   A(31,32,39)           121.1288         estimate D2E/DX2                !
 ! A60   A(33,32,39)           120.3628         estimate D2E/DX2                !
 ! A61   A(32,33,34)           123.4966         estimate D2E/DX2                !
 ! A62   A(32,33,41)           120.7922         estimate D2E/DX2                !
 ! A63   A(34,33,41)           115.7112         estimate D2E/DX2                !
 ! A64   A(29,34,33)           117.211          estimate D2E/DX2                !
 ! A65   A(41,40,45)           123.4824         estimate D2E/DX2                !
 ! A66   A(41,40,47)           120.7967         estimate D2E/DX2                !
 ! A67   A(45,40,47)           115.7208         estimate D2E/DX2                !
 ! A68   A(33,41,40)           120.3621         estimate D2E/DX2                !
 ! A69   A(33,41,42)           121.1123         estimate D2E/DX2                !
 ! A70   A(40,41,42)           118.5257         estimate D2E/DX2                !
 ! A71   A(41,42,43)           118.7759         estimate D2E/DX2                !
 ! A72   A(41,42,46)           120.5954         estimate D2E/DX2                !
 ! A73   A(43,42,46)           120.6287         estimate D2E/DX2                !
 ! A74   A(42,43,44)           118.5084         estimate D2E/DX2                !
 ! A75   A(42,43,51)           121.1287         estimate D2E/DX2                !
 ! A76   A(44,43,51)           120.3629         estimate D2E/DX2                !
 ! A77   A(43,44,45)           123.4967         estimate D2E/DX2                !
 ! A78   A(43,44,54)           120.7922         estimate D2E/DX2                !
 ! A79   A(45,44,54)           115.7112         estimate D2E/DX2                !
 ! A80   A(40,45,44)           117.211          estimate D2E/DX2                !
 ! A81   A(40,47,48)           109.4721         estimate D2E/DX2                !
 ! A82   A(40,47,49)           109.472          estimate D2E/DX2                !
 ! A83   A(40,47,50)           109.4695         estimate D2E/DX2                !
 ! A84   A(48,47,49)           109.4686         estimate D2E/DX2                !
 ! A85   A(48,47,50)           109.473          estimate D2E/DX2                !
 ! A86   A(49,47,50)           109.4722         estimate D2E/DX2                !
 ! A87   A(53,52,54)           117.701          estimate D2E/DX2                !
 ! A88   A(53,52,61)           118.5721         estimate D2E/DX2                !
 ! A89   A(54,52,61)           123.7268         estimate D2E/DX2                !
 ! A90   A(52,53,55)           121.3955         estimate D2E/DX2                !
 ! A91   A(52,53,56)           118.9073         estimate D2E/DX2                !
 ! A92   A(55,53,56)           119.6973         estimate D2E/DX2                !
 ! A93   A(44,54,52)           119.8833         estimate D2E/DX2                !
 ! A94   A(44,54,57)           119.1899         estimate D2E/DX2                !
 ! A95   A(52,54,57)           120.9268         estimate D2E/DX2                !
 ! A96   A(53,55,58)           120.0597         estimate D2E/DX2                !
 ! A97   A(53,55,66)           119.769          estimate D2E/DX2                !
 ! A98   A(58,55,66)           120.1714         estimate D2E/DX2                !
 ! A99   A(54,57,58)           120.5201         estimate D2E/DX2                !
 ! A100  A(54,57,59)           119.5374         estimate D2E/DX2                !
 ! A101  A(58,57,59)           119.9425         estimate D2E/DX2                !
 ! A102  A(55,58,57)           119.3969         estimate D2E/DX2                !
 ! A103  A(55,58,63)           120.356          estimate D2E/DX2                !
 ! A104  A(57,58,63)           120.2471         estimate D2E/DX2                !
 ! A105  A(65,64,66)           117.701          estimate D2E/DX2                !
 ! A106  A(65,64,72)           118.5721         estimate D2E/DX2                !
 ! A107  A(66,64,72)           123.7269         estimate D2E/DX2                !
 ! A108  A(64,65,67)           121.3955         estimate D2E/DX2                !
 ! A109  A(64,65,68)           118.9072         estimate D2E/DX2                !
 ! A110  A(67,65,68)           119.6973         estimate D2E/DX2                !
 ! A111  A(55,66,64)           119.8832         estimate D2E/DX2                !
 ! A112  A(55,66,69)           119.1899         estimate D2E/DX2                !
 ! A113  A(64,66,69)           120.9269         estimate D2E/DX2                !
 ! A114  A(65,67,70)           120.0596         estimate D2E/DX2                !
 ! A115  A(65,67,76)           119.7689         estimate D2E/DX2                !
 ! A116  A(70,67,76)           120.1714         estimate D2E/DX2                !
 ! A117  A(66,69,70)           120.5201         estimate D2E/DX2                !
 ! A118  A(66,69,71)           119.5374         estimate D2E/DX2                !
 ! A119  A(70,69,71)           119.9425         estimate D2E/DX2                !
 ! A120  A(67,70,69)           119.397          estimate D2E/DX2                !
 ! A121  A(67,70,73)           120.356          estimate D2E/DX2                !
 ! A122  A(69,70,73)           120.247          estimate D2E/DX2                !
 ! A123  A(75,74,76)           117.701          estimate D2E/DX2                !
 ! A124  A(75,74,82)           118.5721         estimate D2E/DX2                !
 ! A125  A(76,74,82)           123.7269         estimate D2E/DX2                !
 ! A126  A(74,75,77)           121.3954         estimate D2E/DX2                !
 ! A127  A(74,75,78)           118.9072         estimate D2E/DX2                !
 ! A128  A(77,75,78)           119.6973         estimate D2E/DX2                !
 ! A129  A(67,76,74)           119.8833         estimate D2E/DX2                !
 ! A130  A(67,76,79)           119.1899         estimate D2E/DX2                !
 ! A131  A(74,76,79)           120.9268         estimate D2E/DX2                !
 ! A132  A(75,77,80)           120.0597         estimate D2E/DX2                !
 ! A133  A(75,77,87)           119.7689         estimate D2E/DX2                !
 ! A134  A(80,77,87)           120.1714         estimate D2E/DX2                !
 ! A135  A(76,79,80)           120.5201         estimate D2E/DX2                !
 ! A136  A(76,79,81)           119.5374         estimate D2E/DX2                !
 ! A137  A(80,79,81)           119.9425         estimate D2E/DX2                !
 ! A138  A(77,80,79)           119.397          estimate D2E/DX2                !
 ! A139  A(77,80,83)           120.356          estimate D2E/DX2                !
 ! A140  A(79,80,83)           120.247          estimate D2E/DX2                !
 ! A141  A(80,83,84)           109.497          estimate D2E/DX2                !
 ! A142  A(86,85,87)           117.701          estimate D2E/DX2                !
 ! A143  A(86,85,94)           118.5722         estimate D2E/DX2                !
 ! A144  A(87,85,94)           123.7269         estimate D2E/DX2                !
 ! A145  A(85,86,88)           121.3955         estimate D2E/DX2                !
 ! A146  A(85,86,89)           118.9072         estimate D2E/DX2                !
 ! A147  A(88,86,89)           119.6973         estimate D2E/DX2                !
 ! A148  A(77,87,85)           119.8833         estimate D2E/DX2                !
 ! A149  A(77,87,90)           119.1899         estimate D2E/DX2                !
 ! A150  A(85,87,90)           120.9268         estimate D2E/DX2                !
 ! A151  A(86,88,91)           120.0596         estimate D2E/DX2                !
 ! A152  A(86,88,93)           119.769          estimate D2E/DX2                !
 ! A153  A(91,88,93)           120.1714         estimate D2E/DX2                !
 ! A154  A(87,90,91)           120.5201         estimate D2E/DX2                !
 ! A155  A(87,90,92)           119.5373         estimate D2E/DX2                !
 ! A156  A(91,90,92)           119.9426         estimate D2E/DX2                !
 ! A157  A(88,91,90)           119.397          estimate D2E/DX2                !
 ! A158  A(88,91,95)           120.3561         estimate D2E/DX2                !
 ! A159  A(90,91,95)           120.247          estimate D2E/DX2                !
 ! A160  L(29,36,37,4,-1)      180.0            estimate D2E/DX2                !
 ! A161  L(36,37,38,3,-1)      180.0            estimate D2E/DX2                !
 ! A162  L(52,61,60,1,-1)      180.0001         estimate D2E/DX2                !
 ! A163  L(58,63,62,1,-1)      180.0            estimate D2E/DX2                !
 ! A164  L(91,95,96,1,-1)      180.0            estimate D2E/DX2                !
 ! A165  L(95,96,97,8,-1)      180.0            estimate D2E/DX2                !
 ! A166  L(29,36,37,4,-2)      179.9999         estimate D2E/DX2                !
 ! A167  L(36,37,38,3,-2)      180.0            estimate D2E/DX2                !
 ! A168  L(52,61,60,1,-2)      180.0            estimate D2E/DX2                !
 ! A169  L(58,63,62,1,-2)      180.0            estimate D2E/DX2                !
 ! A170  L(91,95,96,1,-2)      180.0            estimate D2E/DX2                !
 ! A171  L(95,96,97,8,-2)      180.0            estimate D2E/DX2                !
 ! D1    D(6,1,2,3)              0.0102         estimate D2E/DX2                !
 ! D2    D(6,1,2,8)            179.9949         estimate D2E/DX2                !
 ! D3    D(9,1,2,3)           -179.9949         estimate D2E/DX2                !
 ! D4    D(9,1,2,8)             -0.0102         estimate D2E/DX2                !
 ! D5    D(2,1,6,5)             -0.0004         estimate D2E/DX2                !
 ! D6    D(9,1,6,5)           -179.9956         estimate D2E/DX2                !
 ! D7    D(2,1,9,10)          -150.0026         estimate D2E/DX2                !
 ! D8    D(2,1,9,11)           -30.0058         estimate D2E/DX2                !
 ! D9    D(6,1,9,10)            29.9927         estimate D2E/DX2                !
 ! D10   D(6,1,9,11)           149.9895         estimate D2E/DX2                !
 ! D11   D(1,2,3,4)             -0.0094         estimate D2E/DX2                !
 ! D12   D(1,2,3,7)           -179.9394         estimate D2E/DX2                !
 ! D13   D(8,2,3,4)           -179.9939         estimate D2E/DX2                !
 ! D14   D(8,2,3,7)              0.076          estimate D2E/DX2                !
 ! D15   D(2,3,4,5)             -0.0003         estimate D2E/DX2                !
 ! D16   D(2,3,4,12)          -179.9902         estimate D2E/DX2                !
 ! D17   D(7,3,4,5)            179.9298         estimate D2E/DX2                !
 ! D18   D(7,3,4,12)            -0.0601         estimate D2E/DX2                !
 ! D19   D(3,4,5,6)              0.0107         estimate D2E/DX2                !
 ! D20   D(3,4,5,17)           179.9954         estimate D2E/DX2                !
 ! D21   D(12,4,5,6)          -179.9994         estimate D2E/DX2                !
 ! D22   D(12,4,5,17)           -0.0147         estimate D2E/DX2                !
 ! D23   D(3,4,12,13)            0.0074         estimate D2E/DX2                !
 ! D24   D(5,4,12,13)         -179.9823         estimate D2E/DX2                !
 ! D25   D(4,5,6,1)             -0.0102         estimate D2E/DX2                !
 ! D26   D(17,5,6,1)          -179.9956         estimate D2E/DX2                !
 ! D27   D(4,5,17,18)            0.0269         estimate D2E/DX2                !
 ! D28   D(4,5,17,21)         -179.9845         estimate D2E/DX2                !
 ! D29   D(6,5,17,18)         -179.9873         estimate D2E/DX2                !
 ! D30   D(6,5,17,21)            0.0013         estimate D2E/DX2                !
 ! D31   D(4,12,13,14)         179.9907         estimate D2E/DX2                !
 ! D32   D(4,12,13,15)         -60.0109         estimate D2E/DX2                !
 ! D33   D(4,12,13,16)          59.9893         estimate D2E/DX2                !
 ! D34   D(5,17,18,19)        -179.9534         estimate D2E/DX2                !
 ! D35   D(5,17,18,23)          -0.0287         estimate D2E/DX2                !
 ! D36   D(21,17,18,19)          0.0568         estimate D2E/DX2                !
 ! D37   D(21,17,18,23)        179.9815         estimate D2E/DX2                !
 ! D38   D(5,17,21,20)         179.9929         estimate D2E/DX2                !
 ! D39   D(5,17,21,22)          -0.0485         estimate D2E/DX2                !
 ! D40   D(18,17,21,20)         -0.0162         estimate D2E/DX2                !
 ! D41   D(18,17,21,22)        179.9423         estimate D2E/DX2                !
 ! D42   D(17,18,19,20)         -0.0775         estimate D2E/DX2                !
 ! D43   D(17,18,19,28)        179.9444         estimate D2E/DX2                !
 ! D44   D(23,18,19,20)        179.9981         estimate D2E/DX2                !
 ! D45   D(23,18,19,28)          0.02           estimate D2E/DX2                !
 ! D46   D(17,18,23,24)          0.029          estimate D2E/DX2                !
 ! D47   D(19,18,23,24)        179.9396         estimate D2E/DX2                !
 ! D48   D(18,19,20,21)          0.0672         estimate D2E/DX2                !
 ! D49   D(18,19,20,30)       -179.9917         estimate D2E/DX2                !
 ! D50   D(28,19,20,21)       -179.9546         estimate D2E/DX2                !
 ! D51   D(28,19,20,30)         -0.0135         estimate D2E/DX2                !
 ! D52   D(19,20,21,17)         -0.0334         estimate D2E/DX2                !
 ! D53   D(19,20,21,22)       -179.992          estimate D2E/DX2                !
 ! D54   D(30,20,21,17)       -179.9808         estimate D2E/DX2                !
 ! D55   D(30,20,21,22)          0.0606         estimate D2E/DX2                !
 ! D56   D(19,20,30,29)        179.0622         estimate D2E/DX2                !
 ! D57   D(19,20,30,31)         -0.9536         estimate D2E/DX2                !
 ! D58   D(21,20,30,29)         -1.0035         estimate D2E/DX2                !
 ! D59   D(21,20,30,31)        178.9807         estimate D2E/DX2                !
 ! D60   D(18,23,24,25)        179.9906         estimate D2E/DX2                !
 ! D61   D(18,23,24,26)        -60.0109         estimate D2E/DX2                !
 ! D62   D(18,23,24,27)         59.9893         estimate D2E/DX2                !
 ! D63   D(34,29,30,20)        179.9949         estimate D2E/DX2                !
 ! D64   D(34,29,30,31)          0.0103         estimate D2E/DX2                !
 ! D65   D(36,29,30,20)         -0.0103         estimate D2E/DX2                !
 ! D66   D(36,29,30,31)       -179.9949         estimate D2E/DX2                !
 ! D67   D(30,29,34,33)         -0.0005         estimate D2E/DX2                !
 ! D68   D(36,29,34,33)       -179.9956         estimate D2E/DX2                !
 ! D69   D(20,30,31,32)       -179.9939         estimate D2E/DX2                !
 ! D70   D(20,30,31,35)          0.0761         estimate D2E/DX2                !
 ! D71   D(29,30,31,32)         -0.0095         estimate D2E/DX2                !
 ! D72   D(29,30,31,35)       -179.9394         estimate D2E/DX2                !
 ! D73   D(30,31,32,33)         -0.0002         estimate D2E/DX2                !
 ! D74   D(30,31,32,39)       -179.9901         estimate D2E/DX2                !
 ! D75   D(35,31,32,33)        179.9297         estimate D2E/DX2                !
 ! D76   D(35,31,32,39)         -0.0601         estimate D2E/DX2                !
 ! D77   D(31,32,33,34)          0.0106         estimate D2E/DX2                !
 ! D78   D(31,32,33,41)        179.9953         estimate D2E/DX2                !
 ! D79   D(39,32,33,34)       -179.9994         estimate D2E/DX2                !
 ! D80   D(39,32,33,41)         -0.0147         estimate D2E/DX2                !
 ! D81   D(32,33,34,29)         -0.0102         estimate D2E/DX2                !
 ! D82   D(41,33,34,29)       -179.9956         estimate D2E/DX2                !
 ! D83   D(32,33,41,40)       -178.9868         estimate D2E/DX2                !
 ! D84   D(32,33,41,42)          0.9975         estimate D2E/DX2                !
 ! D85   D(34,33,41,40)          0.999          estimate D2E/DX2                !
 ! D86   D(34,33,41,42)       -179.0167         estimate D2E/DX2                !
 ! D87   D(45,40,41,33)        179.9949         estimate D2E/DX2                !
 ! D88   D(45,40,41,42)          0.0102         estimate D2E/DX2                !
 ! D89   D(47,40,41,33)         -0.0102         estimate D2E/DX2                !
 ! D90   D(47,40,41,42)       -179.9949         estimate D2E/DX2                !
 ! D91   D(41,40,45,44)         -0.0005         estimate D2E/DX2                !
 ! D92   D(47,40,45,44)       -179.9956         estimate D2E/DX2                !
 ! D93   D(41,40,47,48)         29.9661         estimate D2E/DX2                !
 ! D94   D(41,40,47,49)        -90.0317         estimate D2E/DX2                !
 ! D95   D(41,40,47,50)        149.9677         estimate D2E/DX2                !
 ! D96   D(45,40,47,48)       -150.0386         estimate D2E/DX2                !
 ! D97   D(45,40,47,49)         89.9636         estimate D2E/DX2                !
 ! D98   D(45,40,47,50)        -30.037          estimate D2E/DX2                !
 ! D99   D(33,41,42,43)       -179.9939         estimate D2E/DX2                !
 ! D100  D(33,41,42,46)          0.076          estimate D2E/DX2                !
 ! D101  D(40,41,42,43)         -0.0093         estimate D2E/DX2                !
 ! D102  D(40,41,42,46)       -179.9394         estimate D2E/DX2                !
 ! D103  D(41,42,43,44)         -0.0003         estimate D2E/DX2                !
 ! D104  D(41,42,43,51)       -179.9902         estimate D2E/DX2                !
 ! D105  D(46,42,43,44)        179.9298         estimate D2E/DX2                !
 ! D106  D(46,42,43,51)         -0.0601         estimate D2E/DX2                !
 ! D107  D(42,43,44,45)          0.0106         estimate D2E/DX2                !
 ! D108  D(42,43,44,54)        179.9954         estimate D2E/DX2                !
 ! D109  D(51,43,44,45)       -179.9994         estimate D2E/DX2                !
 ! D110  D(51,43,44,54)         -0.0146         estimate D2E/DX2                !
 ! D111  D(43,44,45,40)         -0.0102         estimate D2E/DX2                !
 ! D112  D(54,44,45,40)       -179.9956         estimate D2E/DX2                !
 ! D113  D(43,44,54,52)         -1.0316         estimate D2E/DX2                !
 ! D114  D(43,44,54,57)        179.01           estimate D2E/DX2                !
 ! D115  D(45,44,54,52)        178.9543         estimate D2E/DX2                !
 ! D116  D(45,44,54,57)         -1.0041         estimate D2E/DX2                !
 ! D117  D(54,52,53,55)         -0.029          estimate D2E/DX2                !
 ! D118  D(54,52,53,56)        179.9879         estimate D2E/DX2                !
 ! D119  D(61,52,53,55)        179.9861         estimate D2E/DX2                !
 ! D120  D(61,52,53,56)          0.003          estimate D2E/DX2                !
 ! D121  D(53,52,54,44)       -179.9288         estimate D2E/DX2                !
 ! D122  D(53,52,54,57)          0.0288         estimate D2E/DX2                !
 ! D123  D(61,52,54,44)          0.0553         estimate D2E/DX2                !
 ! D124  D(61,52,54,57)       -179.9871         estimate D2E/DX2                !
 ! D125  D(52,53,55,58)          0.0104         estimate D2E/DX2                !
 ! D126  D(52,53,55,66)       -179.994          estimate D2E/DX2                !
 ! D127  D(56,53,55,58)        179.9934         estimate D2E/DX2                !
 ! D128  D(56,53,55,66)         -0.011          estimate D2E/DX2                !
 ! D129  D(44,54,57,58)        179.9475         estimate D2E/DX2                !
 ! D130  D(44,54,57,59)         -0.0369         estimate D2E/DX2                !
 ! D131  D(52,54,57,58)         -0.0104         estimate D2E/DX2                !
 ! D132  D(52,54,57,59)       -179.9948         estimate D2E/DX2                !
 ! D133  D(53,55,58,57)          0.009          estimate D2E/DX2                !
 ! D134  D(53,55,58,63)        179.9918         estimate D2E/DX2                !
 ! D135  D(66,55,58,57)       -179.9866         estimate D2E/DX2                !
 ! D136  D(66,55,58,63)         -0.0038         estimate D2E/DX2                !
 ! D137  D(53,55,66,64)          0.9906         estimate D2E/DX2                !
 ! D138  D(53,55,66,69)       -178.9678         estimate D2E/DX2                !
 ! D139  D(58,55,66,64)       -179.0138         estimate D2E/DX2                !
 ! D140  D(58,55,66,69)          1.0277         estimate D2E/DX2                !
 ! D141  D(54,57,58,55)         -0.009          estimate D2E/DX2                !
 ! D142  D(54,57,58,63)       -179.9918         estimate D2E/DX2                !
 ! D143  D(59,57,58,55)        179.9753         estimate D2E/DX2                !
 ! D144  D(59,57,58,63)         -0.0075         estimate D2E/DX2                !
 ! D145  D(66,64,65,67)         -0.0289         estimate D2E/DX2                !
 ! D146  D(66,64,65,68)        179.988          estimate D2E/DX2                !
 ! D147  D(72,64,65,67)        179.9861         estimate D2E/DX2                !
 ! D148  D(72,64,65,68)          0.0031         estimate D2E/DX2                !
 ! D149  D(65,64,66,55)       -179.9289         estimate D2E/DX2                !
 ! D150  D(65,64,66,69)          0.0288         estimate D2E/DX2                !
 ! D151  D(72,64,66,55)          0.0552         estimate D2E/DX2                !
 ! D152  D(72,64,66,69)       -179.9871         estimate D2E/DX2                !
 ! D153  D(64,65,67,70)          0.0104         estimate D2E/DX2                !
 ! D154  D(64,65,67,76)       -179.994          estimate D2E/DX2                !
 ! D155  D(68,65,67,70)        179.9933         estimate D2E/DX2                !
 ! D156  D(68,65,67,76)         -0.011          estimate D2E/DX2                !
 ! D157  D(55,66,69,70)        179.9476         estimate D2E/DX2                !
 ! D158  D(55,66,69,71)         -0.0368         estimate D2E/DX2                !
 ! D159  D(64,66,69,70)         -0.0104         estimate D2E/DX2                !
 ! D160  D(64,66,69,71)       -179.9948         estimate D2E/DX2                !
 ! D161  D(65,67,70,69)          0.0091         estimate D2E/DX2                !
 ! D162  D(65,67,70,73)        179.9918         estimate D2E/DX2                !
 ! D163  D(76,67,70,69)       -179.9866         estimate D2E/DX2                !
 ! D164  D(76,67,70,73)         -0.0038         estimate D2E/DX2                !
 ! D165  D(65,67,76,74)         -0.0089         estimate D2E/DX2                !
 ! D166  D(65,67,76,79)       -179.9673         estimate D2E/DX2                !
 ! D167  D(70,67,76,74)        179.9868         estimate D2E/DX2                !
 ! D168  D(70,67,76,79)          0.0284         estimate D2E/DX2                !
 ! D169  D(66,69,70,67)         -0.0091         estimate D2E/DX2                !
 ! D170  D(66,69,70,73)       -179.9918         estimate D2E/DX2                !
 ! D171  D(71,69,70,67)        179.9753         estimate D2E/DX2                !
 ! D172  D(71,69,70,73)         -0.0075         estimate D2E/DX2                !
 ! D173  D(76,74,75,77)         -0.0289         estimate D2E/DX2                !
 ! D174  D(76,74,75,78)        179.988          estimate D2E/DX2                !
 ! D175  D(82,74,75,77)        179.9861         estimate D2E/DX2                !
 ! D176  D(82,74,75,78)          0.003          estimate D2E/DX2                !
 ! D177  D(75,74,76,67)       -179.9288         estimate D2E/DX2                !
 ! D178  D(75,74,76,79)          0.0288         estimate D2E/DX2                !
 ! D179  D(82,74,76,67)          0.0553         estimate D2E/DX2                !
 ! D180  D(82,74,76,79)       -179.987          estimate D2E/DX2                !
 ! D181  D(74,75,77,80)          0.0104         estimate D2E/DX2                !
 ! D182  D(74,75,77,87)       -179.994          estimate D2E/DX2                !
 ! D183  D(78,75,77,80)        179.9934         estimate D2E/DX2                !
 ! D184  D(78,75,77,87)         -0.0111         estimate D2E/DX2                !
 ! D185  D(67,76,79,80)        179.9475         estimate D2E/DX2                !
 ! D186  D(67,76,79,81)         -0.0368         estimate D2E/DX2                !
 ! D187  D(74,76,79,80)         -0.0104         estimate D2E/DX2                !
 ! D188  D(74,76,79,81)       -179.9947         estimate D2E/DX2                !
 ! D189  D(75,77,80,79)          0.009          estimate D2E/DX2                !
 ! D190  D(75,77,80,83)        179.9918         estimate D2E/DX2                !
 ! D191  D(87,77,80,79)       -179.9866         estimate D2E/DX2                !
 ! D192  D(87,77,80,83)         -0.0037         estimate D2E/DX2                !
 ! D193  D(75,77,87,85)         -1.0082         estimate D2E/DX2                !
 ! D194  D(75,77,87,90)        179.0333         estimate D2E/DX2                !
 ! D195  D(80,77,87,85)        178.9873         estimate D2E/DX2                !
 ! D196  D(80,77,87,90)         -0.9711         estimate D2E/DX2                !
 ! D197  D(76,79,80,77)         -0.009          estimate D2E/DX2                !
 ! D198  D(76,79,80,83)       -179.9918         estimate D2E/DX2                !
 ! D199  D(81,79,80,77)        179.9753         estimate D2E/DX2                !
 ! D200  D(81,79,80,83)         -0.0075         estimate D2E/DX2                !
 ! D201  D(77,80,83,84)       -179.8821         estimate D2E/DX2                !
 ! D202  D(79,80,83,84)          0.1006         estimate D2E/DX2                !
 ! D203  D(87,85,86,88)         -0.0289         estimate D2E/DX2                !
 ! D204  D(87,85,86,89)        179.988          estimate D2E/DX2                !
 ! D205  D(94,85,86,88)        179.9861         estimate D2E/DX2                !
 ! D206  D(94,85,86,89)          0.003          estimate D2E/DX2                !
 ! D207  D(86,85,87,77)       -179.9289         estimate D2E/DX2                !
 ! D208  D(86,85,87,90)          0.0289         estimate D2E/DX2                !
 ! D209  D(94,85,87,77)          0.0552         estimate D2E/DX2                !
 ! D210  D(94,85,87,90)       -179.987          estimate D2E/DX2                !
 ! D211  D(85,86,88,91)          0.0104         estimate D2E/DX2                !
 ! D212  D(85,86,88,93)       -179.994          estimate D2E/DX2                !
 ! D213  D(89,86,88,91)        179.9933         estimate D2E/DX2                !
 ! D214  D(89,86,88,93)         -0.011          estimate D2E/DX2                !
 ! D215  D(77,87,90,91)        179.9476         estimate D2E/DX2                !
 ! D216  D(77,87,90,92)         -0.0367         estimate D2E/DX2                !
 ! D217  D(85,87,90,91)         -0.0104         estimate D2E/DX2                !
 ! D218  D(85,87,90,92)       -179.9948         estimate D2E/DX2                !
 ! D219  D(86,88,91,90)          0.0091         estimate D2E/DX2                !
 ! D220  D(86,88,91,95)        179.9918         estimate D2E/DX2                !
 ! D221  D(93,88,91,90)       -179.9866         estimate D2E/DX2                !
 ! D222  D(93,88,91,95)         -0.0039         estimate D2E/DX2                !
 ! D223  D(87,90,91,88)         -0.009          estimate D2E/DX2                !
 ! D224  D(87,90,91,95)       -179.9918         estimate D2E/DX2                !
 ! D225  D(92,90,91,88)        179.9753         estimate D2E/DX2                !
 ! D226  D(92,90,91,95)         -0.0075         estimate D2E/DX2                !
 --------------------------------------------------------------------------------
 Trust Radius=3.00D-01 FncErr=1.00D-07 GrdErr=1.00D-06
 Number of steps in this run=    511 maximum allowed number of steps=    582.
 GradGradGradGradGradGradGradGradGradGradGradGradGradGradGradGradGradGrad

 Stoichiometry    C52H35N7O3
 Framework group  C1[X(C52H35N7O3)]
 Deg. of freedom   285
 Full point group                 C1      NOp   1
 Largest Abelian subgroup         C1      NOp   1
 Largest concise Abelian subgroup C1      NOp   1
                         Standard orientation:                         
 ---------------------------------------------------------------------
 Center     Atomic      Atomic             Coordinates (Angstroms)
 Number     Number       Type             X           Y           Z
 ---------------------------------------------------------------------
      1          6           0       11.364193    3.394653   -0.039595
      2          6           0       12.768228    3.304919   -0.039222
      3          6           0       13.355336    2.038344   -0.027904
      4          6           0       12.527848    0.914183   -0.017234
      5          6           0       11.134062    1.106270   -0.018340
      6          7           0       10.550841    2.320791   -0.029387
      7          1           0       14.449068    1.928671   -0.026252
      8          1           0       13.495534    4.382375   -0.049536
      9          7           0       10.771170    4.551489   -0.050015
     10          1           0        9.892656    4.479953    0.422315
     11          1           0       11.345812    5.224835    0.415125
     12          8           0       13.025688   -0.286714   -0.006284
     13          6           0       14.453704   -0.211408   -0.007270
     14          1           0       14.863038   -1.199979    0.001908
     15          1           0       14.783171    0.302872   -0.885891
     16          1           0       14.783515    0.319236    0.861333
     17          6           0       10.322317    0.090883   -0.008763
     18          6           0       10.579631   -1.243873    0.003707
     19          6           0        9.318642   -1.922479    0.009060
     20          6           0        8.346207   -0.972548    0.001381
     21          7           0        8.956305    0.261503   -0.010004
     22          1           0        8.485243    1.136767   -0.017286
     23          8           0       11.755441   -1.798464    0.008266
     24          6           0       12.762172   -0.782935   -0.001240
     25          1           0       13.729734   -1.239796    0.002681
     26          1           0       12.654853   -0.182494   -0.880420
     27          1           0       12.655291   -0.166572    0.866807
     28          1           0        9.133822   -3.209230    0.019761
     29          6           0        6.233120    0.053627    0.012991
     30          6           0        7.051586   -1.090649    0.002384
     31          6           0        6.441765   -2.346460   -0.007293
     32          6           0        5.047607   -2.416499   -0.005859
     33          6           0        4.314907   -1.215431    0.005310
     34          7           0        4.886865    0.004450    0.014536
     35          1           0        7.048530   -3.263008   -0.014726
     36          6           0        6.754186    1.244596    0.022143
     37          6           0        7.235650    2.345052    0.030598
     38          1           0        7.664526    3.325311    0.038131
     39          1           0        4.432225   -3.561589   -0.014405
     40          6           0        2.291323   -0.022392   -0.003271
     41          6           0        3.014981   -1.228867    0.006992
     42          6           0        2.306010   -2.431473    0.018610
     43          6           0        0.910740   -2.388989    0.019776
     44          6           0        0.277143   -1.132812    0.009173
     45          7           0        0.945480    0.037027   -0.002306
     46          1           0        2.836994   -3.393892    0.027842
     47          6           0        2.906752    1.123004   -0.014378
     48          1           0        3.844907    1.018966   -0.518316
     49          1           0        3.076138    1.446685    0.991379
     50          1           0        2.305657    1.845894   -0.525274
     51          1           0        0.205142   -3.480784    0.030582
     52          6           0       -1.806177   -2.211535   -0.001004
     53          6           0       -3.206211   -2.059185   -0.001500
     54          6           0       -1.019590   -1.041506    0.009701
     55          6           0       -3.799024   -0.798604    0.008822
     56          1           0       -3.831928   -2.948882   -0.009875
     57          6           0       -1.610897    0.217202    0.020008
     58          6           0       -3.003539    0.347822    0.019741
     59          1           0       -0.982744    1.104322    0.028065
     60          7           0       -0.875347   -4.474073   -0.019184
     61          6           0       -1.311580   -3.413734   -0.010664
     62          7           0       -4.033220    2.567121    0.037626
     63          6           0       -3.550660    1.527045    0.029245
     64          6           0       -5.892718   -1.857058    0.018134
     65          6           0       -7.291209   -1.691151    0.015409
     66          6           0       -5.094810   -0.694714    0.008154
     67          6           0       -7.871756   -0.424884    0.003891
     68          1           0       -7.925535   -2.574739    0.022772
     69          6           0       -5.673869    0.569666   -0.003346
     70          6           0       -7.065178    0.713779   -0.005464
     71          1           0       -5.037133    1.450649   -0.010982
     72          1           0       -5.409817   -3.063988    0.029324
     73          1           0       -7.600824    1.898247   -0.016392
     74          6           0       -9.975617   -1.462998    0.011020
     75          6           0      -11.372432   -1.283548    0.006764
     76          6           0       -9.166472   -0.308442    0.001810
     77          6           0      -11.940667   -0.011715   -0.005488
     78          1           0      -12.015296   -2.160946    0.013512
     79          6           0       -9.733239    0.961488   -0.010422
     80          6           0      -11.123083    1.119077   -0.014062
     81          1           0       -9.087989    1.836259   -0.017441
     82          1           0       -9.504447   -2.674550    0.022833
     83          8           0      -11.647233    2.308721   -0.025671
     84          1           0      -10.948273    2.966758   -0.032106
     85          6           0      -14.054439   -1.029394   -0.021879
     86          6           0      -15.449442   -0.836389   -0.026729
     87          6           0      -13.234191    0.117267   -0.008984
     88          6           0      -16.005369    0.440903   -0.018495
     89          1           0      -16.100742   -1.707513   -0.036853
     90          6           0      -13.788668    1.392643   -0.000759
     91          6           0      -15.176914    1.563711   -0.005353
     92          1           0      -13.135007    2.261120    0.009056
     93          1           0      -17.297656    0.582446   -0.023185
     94          1           0      -13.594990   -2.245471   -0.029766
     95          6           0      -15.689532    2.758352    0.002220
     96          6           0      -16.163191    3.862200    0.009217
     97          1           0      -16.585116    4.845480    0.015451
 ---------------------------------------------------------------------
 Rotational constants (GHZ):      0.1800697      0.0071257      0.0068554
 Standard basis: 6-31G(d,p) (6D, 7F)
 There are  1105 symmetry adapted cartesian basis functions of A   symmetry.
 There are  1105 symmetry adapted basis functions of A   symmetry.
  1105 basis functions,  1981 primitive gaussians,  1105 cartesian basis functions
   210 alpha electrons      210 beta electrons
       nuclear repulsion energy      7225.0567716030 Hartrees.
 NAtoms=   97 NActive=   97 NUniq=   97 SFac= 1.00D+00 NAtFMM=   60 NAOKFM=T Big=T
 Integral buffers will be    131072 words long.
 Raffenetti 2 integral format.
 Two-electron integral symmetry is turned on.
 One-electron integrals computed using PRISM.
 NBasis=  1105 RedAO= T EigKep=  1.01D-04  NBF=  1105
 NBsUse=  1105 1.00D-06 EigRej= -1.00D+00 NBFU=  1105
 ExpMin= 1.61D-01 ExpMax= 5.48D+03 ExpMxC= 8.25D+02 IAcc=1 IRadAn=         1 AccDes= 0.00D+00
 Harris functional with IExCor=  402 and IRadAn=       1 diagonalized for initial guess.
 HarFok:  IExCor=  402 AccDes= 0.00D+00 IRadAn=         1 IDoV= 1 UseB2=F ITyADJ=14
 ICtDFT=  3500011 ScaDFX=  1.000000  1.000000  1.000000  1.000000
 FoFCou: FMM=F IPFlag=           0 FMFlag=      100000 FMFlg1=        2001
         NFxFlg=           0 DoJE=T BraDBF=F KetDBF=T FulRan=T
         wScrn=  0.000000 ICntrl=     500 IOpCl=  0 I1Cent=   200000004 NGrid=           0
         NMat0=    1 NMatS0=      1 NMatT0=    0 NMatD0=    1 NMtDS0=    0 NMtDT0=    0
 Petite list used in FoFCou.
 Requested convergence on RMS density matrix=1.00D-08 within 128 cycles.
 Requested convergence on MAX density matrix=1.00D-06.
 Requested convergence on             energy=1.00D-06.
 No special actions if energy rises.
 Integral accuracy reduced to 1.0D-05 until final iterations.
 Rare condition: small coef for last iteration:  0.000D+00
 EnCoef did    15 forward-backward iterations
 EnCoef did   100 forward-backward iterations
 EnCoef did   100 forward-backward iterations
 EnCoef did     4 forward-backward iterations
 EnCoef did     2 forward-backward iterations
 EnCoef did     3 forward-backward iterations
 EnCoef did     3 forward-backward iterations
 Problem detected with inexpensive integrals.
 Switching to full accuracy and repeating last cycle.
 EnCoef did   100 forward-backward iterations
 EnCoef did   100 forward-backward iterations
 EnCoef did   100 forward-backward iterations
 EnCoef did   100 forward-backward iterations
 EnCoef did    11 forward-backward iterations
 EnCoef did   100 forward-backward iterations
 EnCoef did     7 forward-backward iterations
 EnCoef did     5 forward-backward iterations
 EnCoef did   100 forward-backward iterations
 EnCoef did    68 forward-backward iterations
 EnCoef did   100 forward-backward iterations
 EnCoef did     5 forward-backward iterations
 Restarting incremental Fock formation.
 EnCoef did     5 forward-backward iterations
 EnCoef did     5 forward-backward iterations
 SCF Done:  E(RB3LYP) =  -2604.99854136     A.U. after   49 cycles
            NFock= 49  Conv=0.26D-08     -V/T= 1.9989

 **********************************************************************

            Population analysis using the SCF density.

 **********************************************************************

 Orbital symmetries:
       Occupied  (A) (A) (A) (A) (A) (A) (A) (A) (A) (A) (A) (A)
                 (A) (A) (A) (A) (A) (A) (A) (A) (A) (A) (A) (A)
                 (A) (A) (A) (A) (A) (A) (A) (A) (A) (A) (A) (A)
                 (A) (A) (A) (A) (A) (A) (A) (A) (A) (A) (A) (A)
                 (A) (A) (A) (A) (A) (A) (A) (A) (A) (A) (A) (A)
                 (A) (A) (A) (A) (A) (A) (A) (A) (A) (A) (A) (A)
                 (A) (A) (A) (A) (A) (A) (A) (A) (A) (A) (A) (A)
                 (A) (A) (A) (A) (A) (A) (A) (A) (A) (A) (A) (A)
                 (A) (A) (A) (A) (A) (A) (A) (A) (A) (A) (A) (A)
                 (A) (A) (A) (A) (A) (A) (A) (A) (A) (A) (A) (A)
                 (A) (A) (A) (A) (A) (A) (A) (A) (A) (A) (A) (A)
                 (A) (A) (A) (A) (A) (A) (A) (A) (A) (A) (A) (A)
                 (A) (A) (A) (A) (A) (A) (A) (A) (A) (A) (A) (A)
                 (A) (A) (A) (A) (A) (A) (A) (A) (A) (A) (A) (A)
                 (A) (A) (A) (A) (A) (A) (A) (A) (A) (A) (A) (A)
                 (A) (A) (A) (A) (A) (A) (A) (A) (A) (A) (A) (A)
                 (A) (A) (A) (A) (A) (A) (A) (A) (A) (A) (A) (A)
                 (A) (A) (A) (A) (A) (A)
       Virtual   (A) (A) (A) (A) (A) (A) (A) (A) (A) (A) (A) (A)
                 (A) (A) (A) (A) (A) (A) (A) (A) (A) (A) (A) (A)
                 (A) (A) (A) (A) (A) (A) (A) (A) (A) (A) (A) (A)
                 (A) (A) (A) (A) (A) (A) (A) (A) (A) (A) (A) (A)
                 (A) (A) (A) (A) (A) (A) (A) (A) (A) (A) (A) (A)
                 (A) (A) (A) (A) (A) (A) (A) (A) (A) (A) (A) (A)
                 (A) (A) (A) (A) (A) (A) (A) (A) (A) (A) (A) (A)
                 (A) (A) (A) (A) (A) (A) (A) (A) (A) (A) (A) (A)
                 (A) (A) (A) (A) (A) (A) (A) (A) (A) (A) (A) (A)
                 (A) (A) (A) (A) (A) (A) (A) (A) (A) (A) (A) (A)
                 (A) (A) (A) (A) (A) (A) (A) (A) (A) (A) (A) (A)
                 (A) (A) (A) (A) (A) (A) (A) (A) (A) (A) (A) (A)
                 (A) (A) (A) (A) (A) (A) (A) (A) (A) (A) (A) (A)
                 (A) (A) (A) (A) (A) (A) (A) (A) (A) (A) (A) (A)
                 (A) (A) (A) (A) (A) (A) (A) (A) (A) (A) (A) (A)
                 (A) (A) (A) (A) (A) (A) (A) (A) (A) (A) (A) (A)
                 (A) (A) (A) (A) (A) (A) (A) (A) (A) (A) (A) (A)
                 (A) (A) (A) (A) (A) (A) (A) (A) (A) (A) (A) (A)
                 (A) (A) (A) (A) (A) (A) (A) (A) (A) (A) (A) (A)
                 (A) (A) (A) (A) (A) (A) (A) (A) (A) (A) (A) (A)
                 (A) (A) (A) (A) (A) (A) (A) (A) (A) (A) (A) (A)
                 (A) (A) (A) (A) (A) (A) (A) (A) (A) (A) (A) (A)
                 (A) (A) (A) (A) (A) (A) (A) (A) (A) (A) (A) (A)
                 (A) (A) (A) (A) (A) (A) (A) (A) (A) (A) (A) (A)
                 (A) (A) (A) (A) (A) (A) (A) (A) (A) (A) (A) (A)
                 (A) (A) (A) (A) (A) (A) (A) (A) (A) (A) (A) (A)
                 (A) (A) (A) (A) (A) (A) (A) (A) (A) (A) (A) (A)
                 (A) (A) (A) (A) (A) (A) (A) (A) (A) (A) (A) (A)
                 (A) (A) (A) (A) (A) (A) (A) (A) (A) (A) (A) (A)
                 (A) (A) (A) (A) (A) (A) (A) (A) (A) (A) (A) (A)
                 (A) (A) (A) (A) (A) (A) (A) (A) (A) (A) (A) (A)
                 (A) (A) (A) (A) (A) (A) (A) (A) (A) (A) (A) (A)
                 (A) (A) (A) (A) (A) (A) (A) (A) (A) (A) (A) (A)
                 (A) (A) (A) (A) (A) (A) (A) (A) (A) (A) (A) (A)
                 (A) (A) (A) (A) (A) (A) (A) (A) (A) (A) (A) (A)
                 (A) (A) (A) (A) (A) (A) (A) (A) (A) (A) (A) (A)
                 (A) (A) (A) (A) (A) (A) (A) (A) (A) (A) (A) (A)
                 (A) (A) (A) (A) (A) (A) (A) (A) (A) (A) (A) (A)
                 (A) (A) (A) (A) (A) (A) (A) (A) (A) (A) (A) (A)
                 (A) (A) (A) (A) (A) (A) (A) (A) (A) (A) (A) (A)
                 (A) (A) (A) (A) (A) (A) (A) (A) (A) (A) (A) (A)
                 (A) (A) (A) (A) (A) (A) (A) (A) (A) (A) (A) (A)
                 (A) (A) (A) (A) (A) (A) (A) (A) (A) (A) (A) (A)
                 (A) (A) (A) (A) (A) (A) (A) (A) (A) (A) (A) (A)
                 (A) (A) (A) (A) (A) (A) (A) (A) (A) (A) (A) (A)
                 (A) (A) (A) (A) (A) (A) (A) (A) (A) (A) (A) (A)
                 (A) (A) (A) (A) (A) (A) (A) (A) (A) (A) (A) (A)
                 (A) (A) (A) (A) (A) (A) (A) (A) (A) (A) (A) (A)
                 (A) (A) (A) (A) (A) (A) (A) (A) (A) (A) (A) (A)
                 (A) (A) (A) (A) (A) (A) (A) (A) (A) (A) (A) (A)
                 (A) (A) (A) (A) (A) (A) (A) (A) (A) (A) (A) (A)
                 (A) (A) (A) (A) (A) (A) (A) (A) (A) (A) (A) (A)
                 (A) (A) (A) (A) (A) (A) (A) (A) (A) (A) (A) (A)
                 (A) (A) (A) (A) (A) (A) (A) (A) (A) (A) (A) (A)
                 (A) (A) (A) (A) (A) (A) (A) (A) (A) (A) (A) (A)
                 (A) (A) (A) (A) (A) (A) (A) (A) (A) (A) (A) (A)
                 (A) (A) (A) (A) (A) (A) (A) (A) (A) (A) (A) (A)
                 (A) (A) (A) (A) (A) (A) (A) (A) (A) (A) (A) (A)
                 (A) (A) (A) (A) (A) (A) (A) (A) (A) (A) (A) (A)
                 (A) (A) (A) (A) (A) (A) (A) (A) (A) (A) (A) (A)
                 (A) (A) (A) (A) (A) (A) (A) (A) (A) (A) (A) (A)
                 (A) (A) (A) (A) (A) (A) (A) (A) (A) (A) (A) (A)
                 (A) (A) (A) (A) (A) (A) (A) (A) (A) (A) (A) (A)
                 (A) (A) (A) (A) (A) (A) (A) (A) (A) (A) (A) (A)
                 (A) (A) (A) (A) (A) (A) (A) (A) (A) (A) (A) (A)
                 (A) (A) (A) (A) (A) (A) (A) (A) (A) (A) (A) (A)
                 (A) (A) (A) (A) (A) (A) (A) (A) (A) (A) (A) (A)
                 (A) (A) (A) (A) (A) (A) (A) (A) (A) (A) (A) (A)
                 (A) (A) (A) (A) (A) (A) (A) (A) (A) (A) (A) (A)
                 (A) (A) (A) (A) (A) (A) (A) (A) (A) (A) (A) (A)
                 (A) (A) (A) (A) (A) (A) (A) (A) (A) (A) (A) (A)
                 (A) (A) (A) (A) (A) (A) (A) (A) (A) (A) (A) (A)
                 (A) (A) (A) (A) (A) (A) (A) (A) (A) (A) (A) (A)
                 (A) (A) (A) (A) (A) (A) (A) (A) (A) (A) (A) (A)
                 (A) (A) (A) (A) (A) (A) (A)
 The electronic state is 1-A.
 Alpha  occ. eigenvalues --  -19.73979 -19.20625 -19.17973 -14.38973 -14.35449
 Alpha  occ. eigenvalues --  -14.35235 -14.34607 -14.33467 -14.33083 -14.30885
 Alpha  occ. eigenvalues --  -10.76410 -10.29893 -10.25939 -10.25680 -10.25164
 Alpha  occ. eigenvalues --  -10.25162 -10.25109 -10.24324 -10.24020 -10.23795
 Alpha  occ. eigenvalues --  -10.22966 -10.22916 -10.22434 -10.22417 -10.22357
 Alpha  occ. eigenvalues --  -10.22316 -10.22111 -10.21876 -10.21526 -10.21512
 Alpha  occ. eigenvalues --  -10.21118 -10.21040 -10.20768 -10.20696 -10.20610
 Alpha  occ. eigenvalues --  -10.20606 -10.20576 -10.20552 -10.20475 -10.20417
 Alpha  occ. eigenvalues --  -10.20396 -10.20307 -10.20142 -10.19274 -10.19150
 Alpha  occ. eigenvalues --  -10.19079 -10.18996 -10.18918 -10.18885 -10.18867
 Alpha  occ. eigenvalues --  -10.18773 -10.18704 -10.18276 -10.18060 -10.17632
 Alpha  occ. eigenvalues --  -10.17088 -10.16620 -10.16590 -10.16361 -10.16334
 Alpha  occ. eigenvalues --  -10.13419 -10.11533  -1.62111  -1.28534  -1.27347
 Alpha  occ. eigenvalues --   -1.12158  -1.10263  -1.02872  -1.00092  -0.97508
 Alpha  occ. eigenvalues --   -0.96813  -0.96009  -0.95489  -0.94391  -0.93099
 Alpha  occ. eigenvalues --   -0.91056  -0.89400  -0.88047  -0.87278  -0.86085
 Alpha  occ. eigenvalues --   -0.84305  -0.84140  -0.82528  -0.82239  -0.81948
 Alpha  occ. eigenvalues --   -0.80997  -0.80098  -0.79045  -0.78152  -0.77239
 Alpha  occ. eigenvalues --   -0.76218  -0.75696  -0.75388  -0.74308  -0.73268
 Alpha  occ. eigenvalues --   -0.72513  -0.71999  -0.71155  -0.70251  -0.69757
 Alpha  occ. eigenvalues --   -0.68313  -0.67679  -0.67014  -0.66617  -0.65000
 Alpha  occ. eigenvalues --   -0.64781  -0.64428  -0.63784  -0.62639  -0.61881
 Alpha  occ. eigenvalues --   -0.61767  -0.60395  -0.59600  -0.59454  -0.58807
 Alpha  occ. eigenvalues --   -0.58152  -0.57222  -0.57117  -0.56754  -0.56192
 Alpha  occ. eigenvalues --   -0.55168  -0.54623  -0.53854  -0.53583  -0.52918
 Alpha  occ. eigenvalues --   -0.51811  -0.51617  -0.50648  -0.50414  -0.49801
 Alpha  occ. eigenvalues --   -0.49515  -0.48737  -0.48460  -0.48365  -0.48184
 Alpha  occ. eigenvalues --   -0.47893  -0.47273  -0.46761  -0.46558  -0.46479
 Alpha  occ. eigenvalues --   -0.46261  -0.45829  -0.45534  -0.45265  -0.45215
 Alpha  occ. eigenvalues --   -0.45009  -0.44348  -0.44226  -0.43680  -0.43517
 Alpha  occ. eigenvalues --   -0.43247  -0.43094  -0.42554  -0.42387  -0.42153
 Alpha  occ. eigenvalues --   -0.41895  -0.41530  -0.41351  -0.41049  -0.40610
 Alpha  occ. eigenvalues --   -0.40471  -0.40079  -0.39689  -0.39392  -0.38818
 Alpha  occ. eigenvalues --   -0.38706  -0.38534  -0.38371  -0.38297  -0.37780
 Alpha  occ. eigenvalues --   -0.37743  -0.37548  -0.37516  -0.37180  -0.36635
 Alpha  occ. eigenvalues --   -0.36030  -0.35923  -0.35682  -0.35203  -0.34373
 Alpha  occ. eigenvalues --   -0.34070  -0.33240  -0.32680  -0.32084  -0.31233
 Alpha  occ. eigenvalues --   -0.31159  -0.29838  -0.29801  -0.29265  -0.28729
 Alpha  occ. eigenvalues --   -0.28239  -0.27961  -0.27288  -0.27034  -0.26359
 Alpha  occ. eigenvalues --   -0.25926  -0.25904  -0.25446  -0.24916  -0.23805
 Alpha  occ. eigenvalues --   -0.23676  -0.23262  -0.22416  -0.21937  -0.21634
 Alpha  occ. eigenvalues --   -0.21455  -0.19931  -0.18289  -0.14893  -0.11916
 Alpha virt. eigenvalues --   -0.10400  -0.08967  -0.08059  -0.07184  -0.05940
 Alpha virt. eigenvalues --   -0.04878  -0.02997  -0.02120  -0.01473  -0.00557
 Alpha virt. eigenvalues --   -0.00169   0.00353   0.00775   0.00897   0.01339
 Alpha virt. eigenvalues --    0.01771   0.02820   0.03092   0.03563   0.03582
 Alpha virt. eigenvalues --    0.04092   0.04624   0.04792   0.05299   0.05742
 Alpha virt. eigenvalues --    0.06561   0.06583   0.06724   0.06976   0.07484
 Alpha virt. eigenvalues --    0.07970   0.09125   0.09621   0.09733   0.09880
 Alpha virt. eigenvalues --    0.09923   0.11218   0.13328   0.13859   0.14096
 Alpha virt. eigenvalues --    0.14255   0.14432   0.15062   0.15505   0.15682
 Alpha virt. eigenvalues --    0.16016   0.16070   0.16672   0.16797   0.17038
 Alpha virt. eigenvalues --    0.17865   0.17963   0.18452   0.18835   0.19413
 Alpha virt. eigenvalues --    0.20410   0.20834   0.20898   0.21829   0.22131
 Alpha virt. eigenvalues --    0.22350   0.22724   0.22936   0.23438   0.23759
 Alpha virt. eigenvalues --    0.23978   0.24150   0.24321   0.24678   0.25529
 Alpha virt. eigenvalues --    0.25673   0.25855   0.26430   0.26696   0.27256
 Alpha virt. eigenvalues --    0.27547   0.27820   0.28312   0.28570   0.28800
 Alpha virt. eigenvalues --    0.29544   0.30088   0.30209   0.30639   0.31491
 Alpha virt. eigenvalues --    0.31793   0.32202   0.33058   0.33200   0.34236
 Alpha virt. eigenvalues --    0.34642   0.35106   0.35673   0.35816   0.36208
 Alpha virt. eigenvalues --    0.37004   0.37456   0.38342   0.38719   0.38919
 Alpha virt. eigenvalues --    0.39340   0.39570   0.39990   0.40499   0.40957
 Alpha virt. eigenvalues --    0.41297   0.42003   0.42798   0.43439   0.43837
 Alpha virt. eigenvalues --    0.44135   0.44232   0.45042   0.45379   0.45476
 Alpha virt. eigenvalues --    0.46050   0.46303   0.46749   0.47036   0.47311
 Alpha virt. eigenvalues --    0.47619   0.48011   0.48081   0.48581   0.48708
 Alpha virt. eigenvalues --    0.48987   0.49038   0.49582   0.49687   0.49907
 Alpha virt. eigenvalues --    0.50329   0.50486   0.50589   0.50782   0.51083
 Alpha virt. eigenvalues --    0.51207   0.51328   0.51724   0.52040   0.52121
 Alpha virt. eigenvalues --    0.52476   0.52644   0.53242   0.53487   0.53930
 Alpha virt. eigenvalues --    0.53986   0.54263   0.54531   0.54849   0.55120
 Alpha virt. eigenvalues --    0.55314   0.55470   0.55527   0.55922   0.55965
 Alpha virt. eigenvalues --    0.56077   0.56207   0.56296   0.56495   0.56628
 Alpha virt. eigenvalues --    0.56699   0.57046   0.57366   0.57541   0.57820
 Alpha virt. eigenvalues --    0.57896   0.58122   0.58227   0.58328   0.58510
 Alpha virt. eigenvalues --    0.59033   0.59215   0.59333   0.59578   0.59723
 Alpha virt. eigenvalues --    0.59854   0.59930   0.60173   0.60243   0.60366
 Alpha virt. eigenvalues --    0.61118   0.61261   0.61364   0.61452   0.61965
 Alpha virt. eigenvalues --    0.62162   0.62276   0.62392   0.62554   0.62626
 Alpha virt. eigenvalues --    0.62759   0.63009   0.63329   0.63415   0.63515
 Alpha virt. eigenvalues --    0.64226   0.64911   0.65034   0.65126   0.65505
 Alpha virt. eigenvalues --    0.65741   0.65978   0.66377   0.66779   0.66855
 Alpha virt. eigenvalues --    0.67012   0.67326   0.67448   0.67674   0.67687
 Alpha virt. eigenvalues --    0.68169   0.68671   0.69073   0.69620   0.69879
 Alpha virt. eigenvalues --    0.70237   0.70347   0.70883   0.71549   0.71943
 Alpha virt. eigenvalues --    0.72050   0.72425   0.72668   0.72861   0.73448
 Alpha virt. eigenvalues --    0.73462   0.73685   0.73849   0.74004   0.74139
 Alpha virt. eigenvalues --    0.74384   0.74768   0.75134   0.75276   0.75437
 Alpha virt. eigenvalues --    0.75799   0.76308   0.76396   0.76784   0.76951
 Alpha virt. eigenvalues --    0.77009   0.77387   0.77646   0.77802   0.78209
 Alpha virt. eigenvalues --    0.78644   0.79327   0.79597   0.80664   0.81029
 Alpha virt. eigenvalues --    0.81443   0.81626   0.81842   0.82670   0.82725
 Alpha virt. eigenvalues --    0.83114   0.83451   0.83913   0.84024   0.84348
 Alpha virt. eigenvalues --    0.84684   0.85303   0.85775   0.86064   0.86180
 Alpha virt. eigenvalues --    0.86340   0.86503   0.87109   0.87537   0.87773
 Alpha virt. eigenvalues --    0.87830   0.87955   0.88297   0.89156   0.89520
 Alpha virt. eigenvalues --    0.89910   0.90048   0.90388   0.90699   0.90728
 Alpha virt. eigenvalues --    0.91295   0.92100   0.92720   0.93721   0.94189
 Alpha virt. eigenvalues --    0.94221   0.94543   0.95098   0.95230   0.95626
 Alpha virt. eigenvalues --    0.96125   0.96692   0.96979   0.97012   0.97303
 Alpha virt. eigenvalues --    0.97911   0.98165   0.98238   0.98805   0.98893
 Alpha virt. eigenvalues --    0.99150   1.00014   1.00315   1.00947   1.01265
 Alpha virt. eigenvalues --    1.01942   1.02222   1.02561   1.02663   1.03101
 Alpha virt. eigenvalues --    1.03256   1.04015   1.04402   1.04964   1.05439
 Alpha virt. eigenvalues --    1.05543   1.05873   1.07104   1.07803   1.08390
 Alpha virt. eigenvalues --    1.08444   1.08823   1.09741   1.10109   1.10983
 Alpha virt. eigenvalues --    1.11071   1.12065   1.12874   1.14263   1.14449
 Alpha virt. eigenvalues --    1.15083   1.15753   1.16025   1.17025   1.17729
 Alpha virt. eigenvalues --    1.18588   1.18734   1.19208   1.19835   1.20290
 Alpha virt. eigenvalues --    1.20682   1.20814   1.21128   1.21308   1.21605
 Alpha virt. eigenvalues --    1.21742   1.21863   1.22606   1.23342   1.23571
 Alpha virt. eigenvalues --    1.24392   1.24853   1.25052   1.25091   1.25582
 Alpha virt. eigenvalues --    1.26173   1.26465   1.26518   1.26759   1.27095
 Alpha virt. eigenvalues --    1.27272   1.27491   1.27743   1.28161   1.28534
 Alpha virt. eigenvalues --    1.28910   1.29311   1.30060   1.30339   1.30866
 Alpha virt. eigenvalues --    1.31154   1.31517   1.31728   1.31871   1.32357
 Alpha virt. eigenvalues --    1.32413   1.32957   1.33079   1.33199   1.33618
 Alpha virt. eigenvalues --    1.33924   1.34026   1.34548   1.35285   1.35537
 Alpha virt. eigenvalues --    1.35842   1.36402   1.36788   1.37551   1.37860
 Alpha virt. eigenvalues --    1.38355   1.38603   1.38943   1.39226   1.39716
 Alpha virt. eigenvalues --    1.39961   1.40412   1.40747   1.40869   1.41102
 Alpha virt. eigenvalues --    1.41213   1.41510   1.42251   1.42478   1.42983
 Alpha virt. eigenvalues --    1.43012   1.43325   1.43865   1.44498   1.44892
 Alpha virt. eigenvalues --    1.45357   1.46253   1.46414   1.46786   1.47044
 Alpha virt. eigenvalues --    1.47440   1.48087   1.50965   1.51520   1.51779
 Alpha virt. eigenvalues --    1.51884   1.52322   1.52742   1.53174   1.53325
 Alpha virt. eigenvalues --    1.53996   1.54320   1.54839   1.54997   1.55866
 Alpha virt. eigenvalues --    1.56057   1.56244   1.57394   1.57952   1.58427
 Alpha virt. eigenvalues --    1.59524   1.59591   1.60271   1.60813   1.62008
 Alpha virt. eigenvalues --    1.62421   1.63757   1.64306   1.64543   1.64624
 Alpha virt. eigenvalues --    1.64701   1.65956   1.66797   1.67699   1.68126
 Alpha virt. eigenvalues --    1.68545   1.69343   1.69712   1.70227   1.70358
 Alpha virt. eigenvalues --    1.71029   1.71718   1.71777   1.72194   1.72773
 Alpha virt. eigenvalues --    1.73099   1.74372   1.74565   1.75249   1.75511
 Alpha virt. eigenvalues --    1.75764   1.76200   1.76264   1.76353   1.76956
 Alpha virt. eigenvalues --    1.77042   1.77338   1.77460   1.78122   1.78307
 Alpha virt. eigenvalues --    1.79356   1.79490   1.79603   1.79811   1.80630
 Alpha virt. eigenvalues --    1.80924   1.81221   1.81373   1.81751   1.82190
 Alpha virt. eigenvalues --    1.82756   1.83395   1.83886   1.84130   1.84413
 Alpha virt. eigenvalues --    1.84952   1.85570   1.85736   1.86246   1.86778
 Alpha virt. eigenvalues --    1.87293   1.87652   1.88150   1.88343   1.88620
 Alpha virt. eigenvalues --    1.88953   1.89179   1.89738   1.89831   1.89892
 Alpha virt. eigenvalues --    1.90187   1.90761   1.90938   1.91485   1.91916
[...]
 Alpha virt. eigenvalues --    0.87306   0.87701   0.88352   0.88660   0.88919
 Alpha virt. eigenvalues --    0.89261   0.89457   0.89878   0.90075   0.90428
 Alpha virt. eigenvalues --    0.90655   0.90726   0.91193   0.91367   0.92206
 Alpha virt. eigenvalues --    0.92644   0.92899   0.93180   0.93446   0.94080
 Alpha virt. eigenvalues --    0.94329   0.94525   0.94655   0.94878   0.94975
 Alpha virt. eigenvalues --    0.95229   0.95848   0.95963   0.96283   0.96985
 Alpha virt. eigenvalues --    0.97243   0.97779   0.98045   0.98511   0.98991
 Alpha virt. eigenvalues --    0.99378   1.00398   1.00552   1.00647   1.01347
 Alpha virt. eigenvalues --    1.01663   1.02044   1.02149   1.02681   1.03044
 Alpha virt. eigenvalues --    1.03634   1.04177   1.04450   1.04841   1.05637
 Alpha virt. eigenvalues --    1.06617   1.07079   1.07553   1.07864   1.08205
 Alpha virt. eigenvalues --    1.08893   1.09229   1.10533   1.10674   1.11323
 Alpha virt. eigenvalues --    1.11825   1.12150   1.12757   1.12935   1.13323
 Alpha virt. eigenvalues --    1.13602   1.14213   1.14321   1.15229   1.15714
 Alpha virt. eigenvalues --    1.16512   1.16866   1.17029   1.17449   1.17917
 Alpha virt. eigenvalues --    1.18627   1.18799   1.19327   1.19357   1.19838
 Alpha virt. eigenvalues --    1.20138   1.20518   1.20945   1.21749   1.22276
 Alpha virt. eigenvalues --    1.22769   1.23547   1.23776   1.24448   1.24655
 Alpha virt. eigenvalues --    1.24875   1.25503   1.25722   1.25794   1.27229
 Alpha virt. eigenvalues --    1.27538   1.27832   1.28553   1.29200   1.29319
 Alpha virt. eigenvalues --    1.29587   1.29926   1.30796   1.30890   1.31417
 Alpha virt. eigenvalues --    1.31554   1.32044   1.32286   1.32527   1.32964
 Alpha virt. eigenvalues --    1.33528   1.33881   1.34550   1.34607   1.35159
 Alpha virt. eigenvalues --    1.35748   1.36247   1.36483   1.36764   1.37103
 Alpha virt. eigenvalues --    1.37727   1.37910   1.38167   1.38229   1.38592
 Alpha virt. eigenvalues --    1.38695   1.38999   1.39803   1.40169   1.40254
 Alpha virt. eigenvalues --    1.40464   1.41274   1.41481   1.41869   1.42428
 Alpha virt. eigenvalues --    1.42746   1.43098   1.43273   1.44511   1.44633
 Alpha virt. eigenvalues --    1.44838   1.45582   1.46139   1.46342   1.46947
 Alpha virt. eigenvalues --    1.47259   1.47775   1.47994   1.48178   1.49380
 Alpha virt. eigenvalues --    1.49865   1.50306   1.51087   1.52890   1.53412
 Alpha virt. eigenvalues --    1.53627   1.53967   1.54348   1.55248   1.55467
 Alpha virt. eigenvalues --    1.56110   1.56722   1.57338   1.57531   1.58354
 Alpha virt. eigenvalues --    1.58670   1.59196   1.60313   1.61044   1.61659
 Alpha virt. eigenvalues --    1.61772   1.62759   1.64043   1.64279   1.66410
 Alpha virt. eigenvalues --    1.66700   1.67539   1.67934   1.68210   1.68720
 Alpha virt. eigenvalues --    1.69215   1.69959   1.70412   1.70544   1.70743
 Alpha virt. eigenvalues --    1.71240   1.71490   1.72028   1.72183   1.72553
 Alpha virt. eigenvalues --    1.72940   1.73517   1.73735   1.74052   1.74394
 Alpha virt. eigenvalues --    1.74738   1.75275   1.75628   1.76097   1.76307
 Alpha virt. eigenvalues --    1.76428   1.76888   1.77407   1.78029   1.78161
 Alpha virt. eigenvalues --    1.78409   1.78589   1.78790   1.79367   1.79673
 Alpha virt. eigenvalues --    1.80762   1.80867   1.81064   1.81300   1.81504
 Alpha virt. eigenvalues --    1.81864   1.81981   1.82641   1.82837   1.83223
 Alpha virt. eigenvalues --    1.84188   1.84398   1.84678   1.85390   1.86014
 Alpha virt. eigenvalues --    1.86683   1.87494   1.87562   1.88274   1.88450
 Alpha virt. eigenvalues --    1.89074   1.89399   1.89910   1.90004   1.90717
 Alpha virt. eigenvalues --    1.90898   1.91235   1.91335   1.91598   1.91981
 Alpha virt. eigenvalues --    1.92150   1.92600   1.92793   1.92971   1.93348
 Alpha virt. eigenvalues --    1.93591   1.93705   1.94219   1.94563   1.94647
 Alpha virt. eigenvalues --    1.95033   1.95148   1.95816   1.96095   1.96216
 Alpha virt. eigenvalues --    1.96344   1.96703   1.96737   1.97039   1.97372
 Alpha virt. eigenvalues --    1.97631   1.97821   1.98528   1.99002   1.99167
 Alpha virt. eigenvalues --    1.99387   1.99445   1.99833   1.99891   2.00190
 Alpha virt. eigenvalues --    2.00466   2.00813   2.01572   2.01694   2.01883
 Alpha virt. eigenvalues --    2.02413   2.02761   2.02897   2.03732   2.03806
 Alpha virt. eigenvalues --    2.03890   2.04255   2.04937   2.05488   2.05624
 Alpha virt. eigenvalues --    2.05907   2.06272   2.06493   2.07765   2.08161
 Alpha virt. eigenvalues --    2.08486   2.09117   2.09231   2.09622   2.10256
 Alpha virt. eigenvalues --    2.10356   2.10845   2.12399   2.12436   2.12968
 Alpha virt. eigenvalues --    2.13212   2.13670   2.14841   2.15107   2.15667
 Alpha virt. eigenvalues --    2.16375   2.16688   2.17486   2.18187   2.18534
 Alpha virt. eigenvalues --    2.18600   2.19857   2.20078   2.21062   2.21240
 Alpha virt. eigenvalues --    2.21471   2.21644   2.21884   2.22834   2.23330
 Alpha virt. eigenvalues --    2.24312   2.24599   2.24741   2.24833   2.26004
 Alpha virt. eigenvalues --    2.26495   2.26736   2.26905   2.26962   2.27468
 Alpha virt. eigenvalues --    2.28564   2.28786   2.29155   2.29676   2.29753
 Alpha virt. eigenvalues --    2.30137   2.30509   2.30756   2.31301   2.31472
 Alpha virt. eigenvalues --    2.31709   2.32128   2.32205   2.32514   2.33059
 Alpha virt. eigenvalues --    2.33137   2.33400   2.33678   2.33753   2.34214
 Alpha virt. eigenvalues --    2.34784   2.35479   2.35760   2.36956   2.37468
 Alpha virt. eigenvalues --    2.38167   2.39119   2.39509   2.39659   2.39949
 Alpha virt. eigenvalues --    2.40502   2.40866   2.41596   2.41752   2.42122
 Alpha virt. eigenvalues --    2.42196   2.43131   2.43457   2.43604   2.43763
 Alpha virt. eigenvalues --    2.44440   2.44824   2.44964   2.45776   2.45917
 Alpha virt. eigenvalues --    2.46334   2.46823   2.46889   2.47380   2.47474
 Alpha virt. eigenvalues --    2.48146   2.49084   2.49379   2.49464   2.49700
 Alpha virt. eigenvalues --    2.50465   2.50496   2.51370   2.51893   2.52115
 Alpha virt. eigenvalues --    2.52379   2.52589   2.52757   2.52895   2.53745
 Alpha virt. eigenvalues --    2.54096   2.55033   2.55296   2.55878   2.56208
 Alpha virt. eigenvalues --    2.56972   2.57026   2.57584   2.57838   2.58166
 Alpha virt. eigenvalues --    2.58499   2.58662   2.58831   2.59208   2.59660
 Alpha virt. eigenvalues --    2.59699   2.60193   2.61040   2.61329   2.61755
 Alpha virt. eigenvalues --    2.62250   2.62561   2.63068   2.63191   2.63700
 Alpha virt. eigenvalues --    2.64641   2.65038   2.65328   2.65554   2.66039
 Alpha virt. eigenvalues --    2.66292   2.66977   2.67251   2.67571   2.68204
 Alpha virt. eigenvalues --    2.68536   2.69028   2.69214   2.69542   2.70091
 Alpha virt. eigenvalues --    2.70502   2.70749   2.71069   2.71476   2.71861
 Alpha virt. eigenvalues --    2.72200   2.73018   2.73334   2.73596   2.73903
 Alpha virt. eigenvalues --    2.74857   2.75831   2.76286   2.76490   2.77341
 Alpha virt. eigenvalues --    2.77414   2.77908   2.78861   2.79191   2.80302
 Alpha virt. eigenvalues --    2.80865   2.81071   2.81345   2.81775   2.83036
 Alpha virt. eigenvalues --    2.83181   2.83717   2.83742   2.84645   2.85227
 Alpha virt. eigenvalues --    2.85823   2.86194   2.87068   2.87445   2.88325
 Alpha virt. eigenvalues --    2.88781   2.89705   2.90262   2.91188   2.92271
 Alpha virt. eigenvalues --    2.92837   2.93896   2.95121   2.95314   2.96528
 Alpha virt. eigenvalues --    2.96846   2.97262   2.97754   2.99482   2.99797
 Alpha virt. eigenvalues --    3.00375   3.02472   3.03513   3.05501   3.05598
 Alpha virt. eigenvalues --    3.07091   3.08280   3.10182   3.10602   3.11264
 Alpha virt. eigenvalues --    3.11564   3.12022   3.12908   3.14343   3.15253
 Alpha virt. eigenvalues --    3.17023   3.17416   3.17489   3.18494   3.19691
 Alpha virt. eigenvalues --    3.20503   3.20690   3.21228   3.21381   3.23610
 Alpha virt. eigenvalues --    3.24574   3.24694   3.25820   3.26454   3.27373
 Alpha virt. eigenvalues --    3.27751   3.28633   3.29265   3.29745   3.30260
 Alpha virt. eigenvalues --    3.31909   3.33731   3.33968   3.34194   3.34472
 Alpha virt. eigenvalues --    3.36134   3.39246   3.39456   3.40138   3.40583
 Alpha virt. eigenvalues --    3.41334   3.42747   3.43513   3.44353   3.44481
 Alpha virt. eigenvalues --    3.45311   3.46144   3.47090   3.47526   3.48623
 Alpha virt. eigenvalues --    3.50323   3.52867   3.55203   3.61202   3.64655
 Alpha virt. eigenvalues --    3.70276   3.70640   3.73300   3.74482   3.75045
 Alpha virt. eigenvalues --    3.78692   3.83189   3.86745   4.03151   4.04519
 Alpha virt. eigenvalues --    4.04736   4.06859   4.06879   4.07141   4.09630
 Alpha virt. eigenvalues --    4.10730   4.10971   4.11033   4.11534   4.12255
 Alpha virt. eigenvalues --    4.13581   4.14322   4.14645   4.15027   4.15215
 Alpha virt. eigenvalues --    4.15587   4.16514   4.17378   4.19618   4.20161
 Alpha virt. eigenvalues --    4.22684   4.24062   4.24487   4.25993   4.28575
 Alpha virt. eigenvalues --    4.29810   4.30456   4.32047   4.33210   4.33869
 Alpha virt. eigenvalues --    4.35796   4.37708   4.38122   4.39197   4.41062
 Alpha virt. eigenvalues --    4.41940   4.43650   4.44281   4.44875   4.46148
 Alpha virt. eigenvalues --    4.47419   4.49404   4.54238   4.54956   4.56489
 Alpha virt. eigenvalues --    4.57081   4.58422   4.58970   4.66216   4.72654
 Alpha virt. eigenvalues --    4.73821   4.74720   4.77137   4.81724   4.83707
 Alpha virt. eigenvalues --    4.90060   4.91858   4.94701   5.10907   5.14604
          Condensed to atoms (all electrons):
 Mulliken charges:
               1
     1  C    0.461271
     2  C   -0.131164
     3  C   -0.097802
     4  C    0.323825
     5  C    0.211467
     6  N   -0.618083
     7  H    0.095381
     8  H    0.082592
     9  N   -0.643634
    10  H    0.263863
    11  H    0.256934
    12  O   -0.516398
    13  C   -0.082019
    14  H    0.133675
    15  H    0.112013
    16  H    0.106312
    17  C    0.329991
    18  C    0.214678
    19  C   -0.152371
    20  C    0.255905
    21  N   -0.649844
    22  H    0.280526
    23  O   -0.536531
    24  C   -0.067492
    25  H    0.108817
    26  H    0.104628
    27  H    0.097895
    28  H    0.087399
    29  C    0.099898
    30  C    0.146267
    31  C   -0.101051
    32  C   -0.121192
    33  C    0.218033
    34  N   -0.536085
    35  H    0.103719
    36  C    0.415986
    37  C   -0.554389
    38  H    0.181750
    39  H    0.099627
    40  C    0.264340
    41  C    0.057033
    42  C   -0.089511
    43  C   -0.113283
    44  C    0.234138
    45  N   -0.545080
    46  H    0.104518
    47  C   -0.349132
    48  H    0.117620
    49  H    0.151475
    50  H    0.116714
    51  H    0.116224
    52  C    0.094354
    53  C   -0.137332
    54  C    0.093056
    55  C    0.076823
    56  H    0.126844
    57  C   -0.118203
    58  C    0.099237
    59  H    0.147138
    60  N   -0.488364
    61  C    0.232834
    62  N   -0.481890
    63  C    0.232786
    64  C   -0.112647
    65  C   -0.121213
    66  C    0.048493
    67  C    0.068246
    68  H    0.097423
    69  C   -0.101640
    70  C   -0.121683
    71  H    0.107022
    72  H    0.097128
    73  H    0.094546
    74  C   -0.125735
    75  C   -0.131430
    76  C    0.066290
    77  C    0.035198
    78  H    0.093231
    79  C   -0.167312
    80  C    0.296938
    81  H    0.082692
    82  H    0.086539
    83  O   -0.560504
    84  H    0.320247
    85  C   -0.111099
    86  C   -0.093326
    87  C    0.075306
    88  C   -0.081194
    89  H    0.089574
    90  C   -0.091585
    91  C   -0.015177
    92  H    0.108180
    93  H    0.096683
    94  H    0.089268
    95  C    0.340370
    96  C   -0.548934
    97  H    0.163372
 Sum of Mulliken charges =   0.00000
 Mulliken charges with hydrogens summed into heavy atoms:
               1
     1  C    0.461271
     2  C   -0.048572
     3  C   -0.002421
     4  C    0.323825
     5  C    0.211467
     6  N   -0.618083
     9  N   -0.122838
    12  O   -0.516398
    13  C    0.269980
    17  C    0.329991
    18  C    0.214678
    19  C   -0.064972
    20  C    0.255905
    21  N   -0.369318
    23  O   -0.536531
    24  C    0.243848
    29  C    0.099898
    30  C    0.146267
    31  C    0.002668
    32  C   -0.021564
    33  C    0.218033
    34  N   -0.536085
    36  C    0.415986
    37  C   -0.372638
    40  C    0.264340
    41  C    0.057033
    42  C    0.015006
    43  C    0.002941
    44  C    0.234138
    45  N   -0.545080
    47  C    0.036677
    52  C    0.094354
    53  C   -0.010489
    54  C    0.093056
    55  C    0.076823
    57  C    0.028935
    58  C    0.099237
    60  N   -0.488364
    61  C    0.232834
    62  N   -0.481890
    63  C    0.232786
    64  C   -0.015519
    65  C   -0.023790
    66  C    0.048493
    67  C    0.068246
    69  C    0.005382
    70  C   -0.027137
    74  C   -0.039197
    75  C   -0.038198
    76  C    0.066290
    77  C    0.035198
    79  C   -0.084621
    80  C    0.296938
    83  O   -0.240258
    85  C   -0.021832
    86  C   -0.003752
    87  C    0.075306
    88  C    0.015490
    90  C    0.016595
    91  C   -0.015177
    95  C    0.340370
    96  C   -0.385562
 Electronic spatial extent (au):  <R**2>=         156031.4895
 Charge=              0.0000 electrons
 Dipole moment (field-independent basis, Debye):
    X=              8.3269    Y=             -0.6904    Z=              1.1036  Tot=              8.4280
 Quadrupole moment (field-independent basis, Debye-Ang):
   XX=           -229.7820   YY=           -338.4556   ZZ=           -351.3712
   XY=             28.8392   XZ=             16.6037   YZ=             16.8201
 Traceless Quadrupole moment (field-independent basis, Debye-Ang):
   XX=             76.7543   YY=            -31.9193   ZZ=            -44.8350
   XY=             28.8392   XZ=             16.6037   YZ=             16.8201
 Octapole moment (field-independent basis, Debye-Ang**2):
  XXX=           2634.3853  YYY=             69.5425  ZZZ=             -1.6153  XYY=            154.5282
  XXY=            192.5324  XXZ=            270.2145  XZZ=            128.1167  YZZ=             59.3941
  YYZ=             11.5614  XYZ=            149.1381
 Hexadecapole moment (field-independent basis, Debye-Ang**3):
 XXXX=        -170727.8557 YYYY=          -5471.7248 ZZZZ=          -2554.8407 XXXY=           5135.2969
 XXXZ=           1715.6980 YYYX=           -360.3286 YYYZ=            330.3585 ZZZX=            470.0405
 ZZZY=            269.9624 XXYY=         -31481.2131 XXZZ=         -33927.3056 YYZZ=          -1385.2623
 XXYZ=            113.3873 YYXZ=            596.3398 ZZXY=            506.2217
 N-N= 6.812059432909D+03 E-N=-1.968651851867D+04  KE= 2.586802516158D+03
 1\1\GINC-CAT\FOpt\RB3LYP\6-31G(d,p)\C52H35N7O3\CCOLLINS\03-May-2015\0\
 \# opt B3LYP/6-31g(d,p) geom=connectivity\\6hl13la6ea-6ia4dd-4aa4af4ae
 -\\0,1\C,-3.7143546027,-1.4146679872,-1.9952856305\C,-2.3789156691,-1.
 6975174579,-1.6681011591\C,-1.757536088,-0.9123797679,-0.7042466639\C,
 -2.4557388605,0.1313783436,-0.0894607819\C,-3.7871888188,0.3725453064,
 -0.4974846434\N,-4.3798471681,-0.4085900278,-1.4253351285\H,-0.7327122
 956,-1.1259667605,-0.4244975433\H,-1.8477280195,-2.5159386116,-2.14339
 92606\N,-4.4316122996,-2.1980213439,-2.8974784441\H,-5.2372184193,-1.7
 156795181,-3.2740856759\H,-3.8794732568,-2.6537662212,-3.6107775237\O,
 -1.9471104342,0.9240658012,0.8962540194\C,-0.6516293174,0.6388331176,1
 .3945163497\H,-0.4758715609,1.3600963325,2.1933535391\H,-0.5904127282,
 -0.3779309182,1.8040859275\H,0.1199083853,0.7606815362,0.6223508013\C,
 -4.6631819275,1.4052489064,0.0627614193\C,-4.5317250177,2.6234048075,0
 .7638621939\C,-5.8222226891,3.1327347298,0.990748897\C,-6.7452860932,2
 .2414671144,0.4292322081\N,-6.012035131,1.2274765637,-0.124663755\H,-6
 .3713098181,0.4384455778,-0.6459420142\O,-3.4037514941,3.2698715057,1.
 1835077693\C,-2.6274227289,3.8524606805,0.1399023261\H,-1.8086400628,4
 .3884247484,0.6255599463\H,-2.2101989865,3.090244245,-0.5270930151\H,-
 3.2253276763,4.560379175,-0.4490873689\H,-6.0311386197,4.0518538578,1.
 5171429938\C,-9.0835937245,1.3313715934,-0.1066028839\C,-8.1975749209,
 2.3262689222,0.4011344755\C,-8.8255099008,3.4770783215,0.9215521627\C,
 -10.1998489378,3.6093757873,0.9138728472\C,-10.9877690838,2.5760112976
 ,0.3692811326\N,-10.4225171189,1.4670330517,-0.1168796921\H,-8.2163384
 446,4.2715403534,1.3375696168\C,-8.6268315874,0.0813296744,-0.64815595
 94\C,-8.277968493,-0.9836352227,-1.1069048976\H,-7.9622942653,-1.92592
 11769,-1.4926185078\H,-10.6645787362,4.4921096562,1.3395481342\C,-13.3
 522135084,1.6058510252,0.5206309732\C,-12.4660745134,2.6944662196,0.29
 52089666\C,-13.0430671546,3.9344633698,0.0019075045\C,-14.4225928098,4
 .0791124464,-0.0889234537\C,-15.2177575978,2.9470817372,0.1127309714\N
 ,-14.6770516067,1.7559152261,0.429791363\H,-12.4060053922,4.7948614107
 ,-0.1785273044\C,-12.884776508,0.2237026659,0.9001040425\H,-12.1365053
 036,0.256390474,1.6973349468\H,-12.4083336657,-0.2740233059,0.05190271
 05\H,-13.7462285176,-0.3597978765,1.2283980831\H,-14.8519049389,5.0472
 403137,-0.3096382047\C,-17.4797211064,3.845619778,-0.741594239\C,-18.8
 826633876,3.7916873008,-0.7138960211\C,-16.7059496033,2.9649555013,0.0
 530730416\C,-19.5837400936,2.8787558046,0.0770824284\H,-19.4377993051,
 4.4971672966,-1.3215736972\C,-17.4073745006,2.0317765277,0.824900263\C
 ,-18.8053848784,1.9784977422,0.8492888448\H,-16.8317301439,1.322002834
 2,1.4057095701\N,-16.4965567187,5.605447357,-2.3802199753\C,-16.903455
 2422,4.8087438245,-1.6359948857\N,-19.8558640179,0.1130351445,2.322692
 394\C,-19.4095565538,0.9560236358,1.6567318352\C,-21.7640510598,3.0002
 813364,-1.14824605\C,-23.1538008928,3.0233400626,-1.1769273011\C,-21.0
 668317661,2.879255829,0.0658384601\C,-23.9058749733,2.9322857179,0.006
 5091314\H,-23.6654091168,3.0779121442,-2.1325858959\C,-21.8152529308,2
 .7919315671,1.2506526008\C,-23.2051531699,2.8196073773,1.2188203638\H,
 -21.3098705021,2.7270081773,2.2078940067\H,-21.2116865947,3.0393249388
 ,-2.0823973603\H,-23.7552368207,2.785057697,2.1539044185\C,-26.0854801
 38,3.7669111519,-0.9314306127\C,-27.4764536014,3.7703284583,-0.9428894
 556\C,-25.3880803047,2.9531805194,-0.0265930932\C,-28.240721168,2.9765
 817832,-0.0742343507\H,-27.9980360467,4.3985295738,-1.6583786184\C,-26
 .1351284834,2.1522188576,0.8486804531\C,-27.5308179606,2.1559934006,0.
 8297161026\H,-25.6206710159,1.4901283233,1.541597539\H,-25.5403803804,
 4.414337316,-1.6101286892\O,-28.2484497755,1.3716045748,1.6889234387\H
 ,-27.6368686678,0.8889177874,2.2606069319\C,-30.3724764565,4.273244150
 8,-0.2735596872\C,-31.7616221299,4.3499757004,-0.3644072564\C,-29.7257
 078752,3.0345117386,-0.1200175781\C,-32.5365784229,3.1963361811,-0.303
 5070777\H,-32.2415285978,5.3177479067,-0.4760039449\C,-30.5128271577,1
 .8765211742,-0.0528649484\C,-31.9128666848,1.9449902193,-0.1451489634\
 H,-30.0421863319,0.9095389812,0.0696236418\H,-33.6179642964,3.24854260
 18,-0.3717579379\H,-29.7810378523,5.1832527529,-0.3005337926\C,-32.696
 0750115,0.7493122895,-0.0840833042\C,-33.3620957495,-0.2598596791,-0.0
 336008206\H,-33.9463453846,-1.1494190575,0.0111332818\\Version=ES64L-G
 09RevD.01\State=1-A\HF=-2611.4497154\RMSD=3.222e-09\RMSF=2.022e-06\Dip
 ole=3.2864791,0.0920081,-0.4306056\Quadrupole=53.7612656,-23.240176,-3
 0.5210895,-25.4137776,-14.1744308,14.356731\PG=C01 [X(C52H35N7O3)]\\@


 TIME IS NATURE'S WAY OF MAKING SURE EVERYTHING
 DOESN'T HAPPEN AT ONCE.
                     - WOODY ALLEN
 Job cpu time:       1 days 16 hours 28 minutes  9.7 seconds.
 File lengths (MBytes):  RWF=    746 Int=      0 D2E=      0 Chk=     82 Scr=      1
 Normal termination of Gaussian 09 at Sun May  3 05:14:29 2015.
